 Generated by Multiwfn
GAUSSIAN              5 MOL ORBITALS     25 PRIMITIVES        1 NUCLEI
  C    1    (CENTRE  1)   0.00000000  0.00000000  0.00000000  CHARGE =  6.0
CENTRE ASSIGNMENTS    1  1  1  1  1  1  1  1  1  1  1  1  1  1  1  1  1  1  1  1
CENTRE ASSIGNMENTS    1  1  1  1  1
TYPE ASSIGNMENTS      1  1  1  1  1  1  1  2  2  2  3  3  3  4  4  4  2  3  4  5
TYPE ASSIGNMENTS      6  7  8  9 10
EXPONENTS  0.1238402D+04 0.1862900D+03 0.4225118D+02 0.1167656D+02 0.3593051D+01
EXPONENTS  0.4024515D+00 0.1309018D+00 0.9468097D+01 0.2010355D+01 0.5477100D+00
EXPONENTS  0.9468097D+01 0.2010355D+01 0.5477100D+00 0.9468097D+01 0.2010355D+01
EXPONENTS  0.5477100D+00 0.1526861D+00 0.1526861D+00 0.1526861D+00 0.8000000D+00
EXPONENTS  0.8000000D+00 0.8000000D+00 0.8000000D+00 0.8000000D+00 0.8000000D+00
MO    1     MO 0.0        OCC NO =    2.0000000  ORB. ENERGY =  -10.015321
  0.81274753D+00  0.14619879D+01  0.21312458D+01  0.20872467D+01  0.82087042D+00
  0.13079592D-01 -0.22451090D-02 -0.27470359D-17 -0.21780381D-17 -0.10420441D-17
 -0.14331066D-17 -0.11362650D-17 -0.54362604D-18  0.13169694D-17  0.10441835D-17
  0.49957128D-18  0.23315188D-18 -0.57095783D-18  0.25334199D-18 -0.50821443D-17
 -0.38407485D-17  0.89228927D-17 -0.98264747D-18  0.12068220D-17  0.27333965D-18
MO    2     MO 0.0        OCC NO =    1.0000000  ORB. ENERGY =   -0.407040
 -0.25558135D+00 -0.45974529D+00 -0.67020403D+00 -0.65636783D+00 -0.25813572D+00
  0.25942604D+00  0.57607784D-01 -0.25489739D-13 -0.20210010D-13 -0.96691248D-14
  0.77562001D-13  0.61496464D-13  0.29421904D-13 -0.29542519D-13 -0.23423331D-13
 -0.11206482D-13 -0.16610262D-14  0.51046934D-14 -0.19327460D-14  0.53597391D-16
  0.37740393D-16 -0.91337785D-16 -0.19996955D-16  0.36257561D-17 -0.72677093D-17
MO    3     MO 0.0        OCC NO =    1.0000000  ORB. ENERGY =   -0.112255
 -0.56245825D-14 -0.10117621D-13 -0.14749190D-13 -0.14444696D-13 -0.56807966D-14
  0.57457814D-14  0.12321011D-14 -0.38827016D+00 -0.30784716D+00 -0.14728407D+00
 -0.50193170D-01 -0.39796581D-01 -0.19039976D-01  0.83858617D+00  0.66488851D+00
  0.31810425D+00 -0.25555615D-01 -0.33036722D-02  0.55195035D-01 -0.31163181D-28
  0.26378617D-27 -0.23262299D-27  0.53546094D-16  0.22427207D-27 -0.13386524D-16
MO    4     MO 0.0        OCC NO =    1.0000000  ORB. ENERGY =   -0.112255
 -0.43018419D-14 -0.77382469D-14 -0.11280603D-13 -0.11047718D-13 -0.43448361D-14
  0.43368966D-14  0.99699581D-15  0.80923058D+00  0.64161340D+00  0.30696867D+00
  0.22573143D+00  0.17897533D+00  0.85627607D-01  0.38818941D+00  0.30778313D+00
  0.14725344D+00  0.53262875D-01  0.14857453D-01  0.25550300D-01 -0.19155314D-15
  0.12972343D-15  0.61829704D-16 -0.32127657D-15  0.16063828D-15  0.13344691D-15
MO    5     MO 0.0        OCC NO =    1.0000000  ORB. ENERGY =   -0.112255
  0.22906140D-13  0.41204064D-13  0.60066150D-13  0.58826099D-13  0.23135073D-13
 -0.23256115D-13 -0.51541042D-14 -0.22559250D+00 -0.17886518D+00 -0.85574905D-01
  0.89611707D+00  0.71050295D+00  0.33992767D+00 -0.50813955D-01 -0.40288781D-01
 -0.19275461D-01 -0.14848308D-01  0.58981671D-01 -0.33445317D-02  0.43228753D-16
 -0.97329744D-16  0.54100991D-16  0.60239356D-16 -0.93705665D-16 -0.20759570D-16
END DATA
 THE  HF ENERGY =      0.000000000000 THE VIRIAL(-V/T)=   2.00000000

$MOSPIN
 0 1 1 1 1 0 0 0 0 0 0 0 0 0
$END
