 ***
GAUSSIAN             15 MOL ORBITALS    142 PRIMITIVES       10 NUCLEI
  C    1    (CENTRE  1)   1.15598825  0.75681479  0.00000016  CHARGE =  6.0
  C    2    (CENTRE  2)   3.52770554 -0.20709007  0.00000003  CHARGE =  6.0
  C    3    (CENTRE  3)  -1.15598793 -0.75681457 -0.00000003  CHARGE =  6.0
  C    4    (CENTRE  4)  -3.52770579  0.20708985 -0.00000014  CHARGE =  6.0
  H    5    (CENTRE  5)   0.90264092  2.82949313  0.00000028  CHARGE =  1.0
  H    6    (CENTRE  6)   5.20391044  1.02215381 -0.00000063  CHARGE =  1.0
  H    7    (CENTRE  7)   3.86179616 -2.26296544 -0.00000029  CHARGE =  1.0
  H    8    (CENTRE  8)  -0.90264053 -2.82949282  0.00000043  CHARGE =  1.0
  H    9    (CENTRE  9)  -3.86179640  2.26296542 -0.00000004  CHARGE =  1.0
  H   10    (CENTRE 10)  -5.20391105 -1.02215408  0.00000010  CHARGE =  1.0
CENTRE ASSIGNMENTS    1  1  1  1  1  1  1  1  1  1  1  1  1  1  1  1  1  1  1  1
CENTRE ASSIGNMENTS    1  1  1  1  1  2  2  2  2  2  2  2  2  2  2  2  2  2  2  2
CENTRE ASSIGNMENTS    2  2  2  2  2  2  2  2  2  2  3  3  3  3  3  3  3  3  3  3
CENTRE ASSIGNMENTS    3  3  3  3  3  3  3  3  3  3  3  3  3  3  3  4  4  4  4  4
CENTRE ASSIGNMENTS    4  4  4  4  4  4  4  4  4  4  4  4  4  4  4  4  4  4  4  4
CENTRE ASSIGNMENTS    5  5  5  5  5  5  5  6  6  6  6  6  6  6  7  7  7  7  7  7
CENTRE ASSIGNMENTS    7  8  8  8  8  8  8  8  9  9  9  9  9  9  9 10 10 10 10 10
CENTRE ASSIGNMENTS   10 10
TYPE ASSIGNMENTS      1  1  1  1  1  1  1  2  2  2  3  3  3  4  4  4  2  3  4  5
TYPE ASSIGNMENTS      6  7  8  9 10  1  1  1  1  1  1  1  2  2  2  3  3  3  4  4
TYPE ASSIGNMENTS      4  2  3  4  5  6  7  8  9 10  1  1  1  1  1  1  1  2  2  2
TYPE ASSIGNMENTS      3  3  3  4  4  4  2  3  4  5  6  7  8  9 10  1  1  1  1  1
TYPE ASSIGNMENTS      1  1  2  2  2  3  3  3  4  4  4  2  3  4  5  6  7  8  9 10
TYPE ASSIGNMENTS      1  1  1  1  2  3  4  1  1  1  1  2  3  4  1  1  1  1  2  3
TYPE ASSIGNMENTS      4  1  1  1  1  2  3  4  1  1  1  1  2  3  4  1  1  1  1  2
TYPE ASSIGNMENTS      3  4
EXPONENTS  0.1238402D+04 0.1862900D+03 0.4225118D+02 0.1167656D+02 0.3593051D+01
EXPONENTS  0.4024515D+00 0.1309018D+00 0.9468097D+01 0.2010355D+01 0.5477100D+00
EXPONENTS  0.9468097D+01 0.2010355D+01 0.5477100D+00 0.9468097D+01 0.2010355D+01
EXPONENTS  0.5477100D+00 0.1526861D+00 0.1526861D+00 0.1526861D+00 0.8000000D+00
EXPONENTS  0.8000000D+00 0.8000000D+00 0.8000000D+00 0.8000000D+00 0.8000000D+00
EXPONENTS  0.1238402D+04 0.1862900D+03 0.4225118D+02 0.1167656D+02 0.3593051D+01
EXPONENTS  0.4024515D+00 0.1309018D+00 0.9468097D+01 0.2010355D+01 0.5477100D+00
EXPONENTS  0.9468097D+01 0.2010355D+01 0.5477100D+00 0.9468097D+01 0.2010355D+01
EXPONENTS  0.5477100D+00 0.1526861D+00 0.1526861D+00 0.1526861D+00 0.8000000D+00
EXPONENTS  0.8000000D+00 0.8000000D+00 0.8000000D+00 0.8000000D+00 0.8000000D+00
EXPONENTS  0.1238402D+04 0.1862900D+03 0.4225118D+02 0.1167656D+02 0.3593051D+01
EXPONENTS  0.4024515D+00 0.1309018D+00 0.9468097D+01 0.2010355D+01 0.5477100D+00
EXPONENTS  0.9468097D+01 0.2010355D+01 0.5477100D+00 0.9468097D+01 0.2010355D+01
EXPONENTS  0.5477100D+00 0.1526861D+00 0.1526861D+00 0.1526861D+00 0.8000000D+00
EXPONENTS  0.8000000D+00 0.8000000D+00 0.8000000D+00 0.8000000D+00 0.8000000D+00
EXPONENTS  0.1238402D+04 0.1862900D+03 0.4225118D+02 0.1167656D+02 0.3593051D+01
EXPONENTS  0.4024515D+00 0.1309018D+00 0.9468097D+01 0.2010355D+01 0.5477100D+00
EXPONENTS  0.9468097D+01 0.2010355D+01 0.5477100D+00 0.9468097D+01 0.2010355D+01
EXPONENTS  0.5477100D+00 0.1526861D+00 0.1526861D+00 0.1526861D+00 0.8000000D+00
EXPONENTS  0.8000000D+00 0.8000000D+00 0.8000000D+00 0.8000000D+00 0.8000000D+00
EXPONENTS  0.1301070D+02 0.1962257D+01 0.4445380D+00 0.1219496D+00 0.8000000D+00
EXPONENTS  0.8000000D+00 0.8000000D+00 0.1301070D+02 0.1962257D+01 0.4445380D+00
EXPONENTS  0.1219496D+00 0.8000000D+00 0.8000000D+00 0.8000000D+00 0.1301070D+02
EXPONENTS  0.1962257D+01 0.4445380D+00 0.1219496D+00 0.8000000D+00 0.8000000D+00
EXPONENTS  0.8000000D+00 0.1301070D+02 0.1962257D+01 0.4445380D+00 0.1219496D+00
EXPONENTS  0.8000000D+00 0.8000000D+00 0.8000000D+00 0.1301070D+02 0.1962257D+01
EXPONENTS  0.4445380D+00 0.1219496D+00 0.8000000D+00 0.8000000D+00 0.8000000D+00
EXPONENTS  0.1301070D+02 0.1962257D+01 0.4445380D+00 0.1219496D+00 0.8000000D+00
EXPONENTS  0.8000000D+00 0.8000000D+00
MO    1     MO 0.0        OCC NO =    2.0000000  ORB. ENERGY =   -9.932572
 -0.57281208D+00 -0.10303868D+01 -0.15020696D+01 -0.14710597D+01 -0.57853697D+00
 -0.13346580D-01  0.57403868D-02  0.17385798D-02  0.13784651D-02  0.65950242D-03
  0.39260882D-03  0.31128715D-03  0.14892987D-03  0.17464207D-09  0.13846819D-09
  0.66247676D-10  0.13041859D-03 -0.21154310D-03 -0.29373608D-10 -0.15863692D-02
 -0.12113760D-02  0.27977453D-02 -0.14795811D-02 -0.35397165D-09 -0.61724011D-09
 -0.15937051D-01 -0.28667914D-01 -0.41791295D-01 -0.40928524D-01 -0.16096331D-01
  0.95875779D-03 -0.18301852D-02 -0.27657388D-02 -0.21928670D-02 -0.10491388D-02
  0.12619459D-02  0.10005571D-02  0.47869898D-03  0.11557459D-09  0.91635444D-10
  0.43841371D-10  0.42031073D-03 -0.35044279D-03 -0.31388163D-10  0.10039254D-02
  0.37834583D-04 -0.10417600D-02 -0.11207577D-02 -0.21507082D-09  0.24410704D-09
  0.57293729D+00  0.10306121D+01  0.15023979D+01  0.14713812D+01  0.57866343D+00
  0.13349123D-01 -0.57409303D-02  0.17381964D-02  0.13781610D-02  0.65935698D-03
  0.39222459D-03  0.31098250D-03  0.14878412D-03  0.88059167D-09  0.69819336D-09
  0.33403836D-09  0.13042185D-03 -0.21164835D-03 -0.12922612D-09  0.15863732D-02
  0.12115747D-02 -0.27979479D-02  0.14789956D-02  0.81841471D-09 -0.72182755D-09
  0.15941219D-01  0.28675412D-01  0.41802226D-01  0.40939230D-01  0.16100542D-01
 -0.95894528D-03  0.18304091D-02 -0.27663283D-02 -0.21933344D-02 -0.10493624D-02
  0.12621320D-02  0.10007047D-02  0.47876960D-03 -0.17883199D-09 -0.14179024D-09
 -0.67837054D-10  0.42037972D-03 -0.35034104D-03  0.69378820D-10 -0.10041279D-02
 -0.37800300D-04  0.10419282D-02  0.11209878D-02 -0.16486989D-10  0.36526655D-10
  0.49401832D-03  0.83807223D-03  0.95410113D-03 -0.92923845D-03 -0.62414361D-04
 -0.26822840D-02 -0.14849658D-09  0.23405540D-04  0.39706084D-04  0.45203287D-04
  0.14468285D-03  0.33604221D-03  0.10655739D-03 -0.36588551D-10 -0.56022558D-04
 -0.95038884D-04 -0.10819677D-03 -0.67034025D-04  0.30837485D-03 -0.39588934D-03
 -0.10948977D-09 -0.49415732D-03 -0.83830803D-03 -0.95436958D-03  0.92934823D-03
 -0.62279480D-04 -0.26827560D-02  0.65961123D-09  0.55998398D-04  0.94997898D-04
  0.10815011D-03  0.66969640D-04  0.30844683D-03 -0.39593128D-03 -0.51052305D-10
 -0.23378561D-04 -0.39660316D-04 -0.45151183D-04 -0.14465731D-03  0.33614466D-03
  0.10653173D-03 -0.44283604D-10
MO    2     MO 0.0        OCC NO =    2.0000000  ORB. ENERGY =   -9.932538
  0.57348357D+00  0.10315947D+01  0.15038304D+01  0.14727842D+01  0.57921517D+00
  0.11649846D-01 -0.24889523D-02  0.17586448D-02  0.13943739D-02  0.66711375D-03
  0.17549450D-02  0.13914405D-02  0.66571029D-03  0.97568843D-10  0.77359258D-10
  0.37011180D-10 -0.12176378D-04  0.48136059D-03  0.54348618D-10  0.19194328D-04
  0.91137829D-03 -0.93057262D-03 -0.26871867D-02 -0.41556906D-09  0.21457931D-09
  0.18914070D-01  0.34023041D-01  0.49597852D-01  0.48573916D-01  0.19103104D-01
 -0.86730536D-03  0.10250910D-02  0.27031317D-02  0.21432278D-02  0.10253897D-02
 -0.85744478D-03 -0.67984091D-03 -0.32525796D-03  0.21405610D-10  0.16971833D-10
  0.81198756D-11 -0.31554214D-03 -0.46646088D-03 -0.34946525D-10 -0.92483566D-03
  0.15276324D-03  0.77207241D-03  0.10478598D-02  0.38732021D-09  0.16419535D-09
  0.57335848D+00  0.10313697D+01  0.15035024D+01  0.14724629D+01  0.57908883D+00
  0.11646931D-01 -0.24876982D-02 -0.17590228D-02 -0.13946737D-02 -0.66725714D-03
 -0.17550317D-02 -0.13915093D-02 -0.66574320D-03  0.36297885D-09  0.28779448D-09
  0.13769022D-09  0.12147732D-04 -0.48131395D-03 -0.32507857D-10  0.18847759D-04
  0.91111347D-03 -0.92996123D-03 -0.26875084D-02  0.10343993D-09 -0.13036419D-08
  0.18910649D-01  0.34016886D-01  0.49588880D-01  0.48565130D-01  0.19099649D-01
 -0.86709398D-03  0.10246900D-02 -0.27025276D-02 -0.21427489D-02 -0.10251606D-02
  0.85716826D-03  0.67962167D-03  0.32515306D-03 -0.13564631D-09 -0.10754968D-09
 -0.51455259D-10  0.31545010D-03  0.46653713D-03  0.89204331D-11 -0.92461718D-03
  0.15277246D-03  0.77184472D-03  0.10476159D-02  0.81508913D-11  0.20672321D-09
 -0.63624804D-03 -0.10793563D-02 -0.12287904D-02  0.50295128D-03 -0.61816628D-03
  0.21631782D-02  0.74636246D-10  0.12465945D-03  0.21147722D-03  0.24075568D-03
  0.11767560D-03 -0.47532061D-03  0.11664428D-03  0.25292035D-09 -0.11019654D-03
 -0.18694177D-03 -0.21282337D-03 -0.29539741D-03 -0.33056483D-03  0.19453946D-03
 -0.35039533D-11 -0.63614007D-03 -0.10791732D-02 -0.12285819D-02  0.50274852D-03
  0.61818008D-03 -0.21625920D-02  0.70871457D-09 -0.11020883D-03 -0.18696261D-03
 -0.21284710D-03 -0.29541156D-03  0.33049733D-03 -0.19445239D-03  0.35992976D-10
  0.12466435D-03  0.21148553D-03  0.24076514D-03  0.11770716D-03  0.47524654D-03
 -0.11666772D-03 -0.66793285D-10
MO    3     MO 0.0        OCC NO =    2.0000000  ORB. ENERGY =   -9.926741
 -0.18293605D-01 -0.32906935D-01 -0.47970824D-01 -0.46980478D-01 -0.18476438D-01
 -0.15629578D-02  0.58131680D-03 -0.25090528D-02 -0.19893488D-02 -0.95176904D-03
  0.47460246D-03  0.37629732D-03  0.18003285D-03  0.59967564D-10  0.47546389D-10
  0.22747736D-10 -0.71074853D-03  0.70763861D-03 -0.23422649D-10 -0.90051311D-03
  0.11208423D-04  0.88930469D-03  0.13960272D-02  0.22265399D-09  0.12732393D-10
  0.57266194D+00  0.10301167D+01  0.15016758D+01  0.14706741D+01  0.57838532D+00
  0.13031367D-01 -0.26768474D-02  0.34552279D-04  0.27395412D-04  0.13106854D-04
 -0.26642761D-03 -0.21124205D-03 -0.10106505D-03 -0.12908017D-08 -0.10234359D-08
 -0.48964496D-09 -0.96701064D-04  0.18727552D-03  0.15774751D-09  0.12095483D-02
  0.10485696D-02 -0.22581178D-02  0.24589935D-03 -0.17668410D-08 -0.21617367D-09
 -0.18311114D-01 -0.32938430D-01 -0.48016736D-01 -0.47025442D-01 -0.18494121D-01
 -0.15647625D-02  0.58337349D-03  0.25121807D-02  0.19918288D-02  0.95295555D-03
 -0.47593301D-03 -0.37735227D-03 -0.18053757D-03  0.24585260D-10  0.19492877D-10
  0.93260249D-11  0.71085280D-03 -0.70722033D-03  0.95027815D-10 -0.90191912D-03
  0.11286982D-04  0.89063213D-03  0.13974307D-02 -0.21894277D-09  0.83757308D-10
  0.57331962D+00  0.10312998D+01  0.15034004D+01  0.14723631D+01  0.57904958D+00
  0.13045885D-01 -0.26812146D-02 -0.35211301D-04 -0.27917930D-04 -0.13356844D-04
  0.26665000D-03  0.21141837D-03  0.10114941D-03  0.56481915D-09  0.44782728D-09
  0.21425511D-09  0.96572775D-04 -0.18736238D-03 -0.63559887D-10  0.12109196D-02
  0.10499255D-02 -0.22608451D-02  0.24574934D-03 -0.43248508D-09 -0.23363458D-09
 -0.13047717D-03 -0.22134663D-03 -0.25199149D-03 -0.41264316D-03  0.64094367D-03
 -0.33423230D-03  0.50065841D-11 -0.61205172D-03 -0.10383088D-02 -0.11820599D-02
  0.64681757D-03  0.20539417D-02  0.16116766D-02 -0.10414014D-08 -0.49448635D-03
 -0.83886622D-03 -0.95500504D-03  0.73065760D-03  0.23851827D-03 -0.24846417D-02
 -0.50726646D-09 -0.13038620D-03 -0.22119230D-03 -0.25181579D-03 -0.41264723D-03
 -0.64152580D-03  0.33473820D-03  0.45761372D-10 -0.49509544D-03 -0.83989949D-03
 -0.95618137D-03  0.73164326D-03 -0.23885225D-03  0.24874599D-02  0.19680584D-09
 -0.61269028D-03 -0.10393920D-02 -0.11832931D-02  0.64768961D-03 -0.20561499D-02
 -0.16134450D-02  0.41983295D-09
MO    4     MO 0.0        OCC NO =    2.0000000  ORB. ENERGY =   -9.926706
 -0.15234750D-01 -0.27404599D-01 -0.39949670D-01 -0.39124918D-01 -0.15387011D-01
 -0.15734908D-02  0.17916632D-02 -0.27279970D-02 -0.21629428D-02 -0.10348220D-02
  0.11607409D-02  0.92031486D-03  0.44030850D-03  0.11322393D-09  0.89771684D-10
  0.42949687D-10 -0.91010911D-04 -0.36378314D-03 -0.54468056D-10 -0.12256522D-02
  0.68332212D-04  0.11573200D-02  0.12234121D-02 -0.32127558D-10 -0.31932463D-10
  0.57347826D+00  0.10315852D+01  0.15038165D+01  0.14727705D+01  0.57920980D+00
  0.12661322D-01 -0.38077576D-02  0.57441504D-03  0.45543556D-03  0.21789516D-03
 -0.19334430D-03 -0.15329659D-03 -0.73342065D-04 -0.12505667D-08 -0.99153489D-09
 -0.47438247D-09  0.11173682D-03  0.75915004D-04  0.14128610D-09  0.11954795D-02
  0.11831421D-02 -0.23786216D-02 -0.13170295D-03 -0.16185789D-08 -0.52519192D-10
  0.15213807D-01  0.27366927D-01  0.39894752D-01  0.39071135D-01  0.15365859D-01
  0.15716969D-02 -0.17909946D-02 -0.27251148D-02 -0.21606576D-02 -0.10337287D-02
  0.11601947D-02  0.91988177D-03  0.44010129D-03 -0.33869825D-10 -0.26854315D-10
 -0.12847976D-10 -0.90195206D-04 -0.36459529D-03 -0.42318195D-10  0.12246190D-02
 -0.68320088D-04 -0.11562990D-02 -0.12218102D-02  0.26380343D-09 -0.28876093D-09
 -0.57282076D+00 -0.10304024D+01 -0.15020923D+01 -0.14710820D+01 -0.57854573D+00
 -0.12646359D-01  0.38046826D-02  0.57437469D-03  0.45540357D-03  0.21787985D-03
 -0.19303911D-03 -0.15305462D-03 -0.73226299D-04 -0.54601516D-09 -0.43291819D-09
 -0.20712212D-09  0.11184792D-03  0.75700370D-04  0.86892677D-10 -0.11940910D-02
 -0.11819371D-02  0.23760281D-02  0.13198407D-03  0.34339590D-09  0.18122220D-09
  0.79169415D-04  0.13430613D-03  0.15290046D-03 -0.38657475D-05  0.50785416D-03
 -0.44085880D-03 -0.17165010D-10 -0.55709100D-03 -0.94507122D-03 -0.10759138D-02
  0.76051072D-03  0.19253679D-02  0.15420354D-02 -0.96244094D-09 -0.53128261D-03
 -0.90128884D-03 -0.10260699D-02  0.85960897D-03  0.29119999D-03 -0.24578232D-02
 -0.50958927D-09 -0.79319159D-04 -0.13456016D-03 -0.15318966D-03  0.33919578D-05
  0.50711849D-03 -0.44047493D-03  0.18462912D-09  0.53071453D-03  0.90032513D-03
  0.10249728D-02 -0.85876979D-03  0.29092613D-03 -0.24549701D-02 -0.20396752D-09
  0.55638813D-03  0.94387884D-03  0.10745564D-02 -0.75976754D-03  0.19230100D-02
  0.15401851D-02 -0.39569899D-09
MO    5     MO 0.0        OCC NO =    2.0000000  ORB. ENERGY =   -0.710451
 -0.14358457D+00 -0.25828305D+00 -0.37651793D+00 -0.36874480D+00 -0.14501961D+00
  0.12314194D+00  0.12071145D-01 -0.12969532D-01 -0.10283133D-01 -0.49197844D-02
 -0.71679193D-01 -0.56832171D-01 -0.27190355D-01 -0.10810609D-07 -0.85713904D-08
 -0.41008314D-08 -0.75031065D-03 -0.32203417D-02 -0.17169226D-09  0.11704395D-01
 -0.17561072D-02 -0.99482878D-02  0.36752417D-02  0.11862869D-09  0.11950355D-08
 -0.92288183D-01 -0.16600999D+00 -0.24200479D+00 -0.23700866D+00 -0.93210544D-01
  0.77028283D-01  0.85739752D-02 -0.10163192D+00 -0.80580741D-01 -0.38552442D-01
  0.28799520D-01  0.22834231D-01  0.10924637D-01 -0.34080876D-08 -0.27021652D-08
 -0.12928035D-08 -0.18275137D-02  0.14296319D-02  0.20163654D-09  0.86791215D-02
 -0.30231047D-02 -0.56560168D-02 -0.83457285D-02 -0.91622296D-09  0.36529716D-09
 -0.14358450D+00 -0.25828292D+00 -0.37651773D+00 -0.36874462D+00 -0.14501954D+00
  0.12314188D+00  0.12071142D-01  0.12969699D-01  0.10283265D-01  0.49198480D-02
  0.71679118D-01  0.56832111D-01  0.27190327D-01  0.89044362D-08  0.70600465D-08
  0.33777554D-08  0.75031590D-03  0.32203429D-02 -0.26162301D-09  0.11704393D-01
 -0.17561093D-02 -0.99482841D-02  0.36752590D-02  0.25152007D-08  0.24700134D-09
 -0.92288064D-01 -0.16600978D+00 -0.24200448D+00 -0.23700836D+00 -0.93210424D-01
  0.77028191D-01  0.85739683D-02  0.10163182D+00  0.80580663D-01  0.38552404D-01
 -0.28799451D-01 -0.22834176D-01 -0.10924611D-01  0.90114820D-08  0.71449197D-08
  0.34183615D-08  0.18275119D-02 -0.14296332D-02  0.19484594D-09  0.86791143D-02
 -0.30231024D-02 -0.56560119D-02 -0.83457117D-02  0.16577891D-08 -0.66785728D-09
  0.14175964D-01  0.24048667D-01  0.27378142D-01  0.27260363D-02  0.12592140D-02
 -0.13069682D-01 -0.93258264D-09  0.78899464D-02  0.13384817D-01  0.15237910D-01
  0.90850926D-03 -0.74952800D-02 -0.40206046D-02  0.19716741D-08  0.91417532D-02
  0.15508432D-01  0.17655534D-01  0.15295316D-02 -0.30936372D-02  0.85505216D-02
  0.10909012D-08  0.14175961D-01  0.24048662D-01  0.27378136D-01  0.27260364D-02
 -0.12592104D-02  0.13069677D-01 -0.25031520D-08  0.91417414D-02  0.15508412D-01
  0.17655511D-01  0.15295310D-02  0.30936332D-02 -0.85505077D-02 -0.21151256D-09
  0.78899311D-02  0.13384791D-01  0.15237880D-01  0.90850615D-03  0.74952636D-02
  0.40205965D-02 -0.62820997D-09
MO    6     MO 0.0        OCC NO =    2.0000000  ORB. ENERGY =   -0.643820
 -0.89683790D-01 -0.16132515D+00 -0.23517536D+00 -0.23032023D+00 -0.90580121D-01
  0.78244036D-01  0.11344757D-01  0.18582323D+00  0.14733338D+00  0.70489070D-01
 -0.29084678D-01 -0.23060324D-01 -0.11032807D-01 -0.68057661D-08 -0.53960772D-08
 -0.25816585D-08  0.47230078D-02 -0.17880042D-02 -0.53461258D-09  0.49144559D-02
 -0.64240770D-03 -0.42720482D-02 -0.14307009D-01 -0.27323876D-08  0.99723551D-09
 -0.13603331D+00 -0.24469968D+00 -0.35671646D+00 -0.34935213D+00 -0.13739288D+00
  0.11698439D+00  0.11416331D-01 -0.86908742D-01 -0.68907200D-01 -0.32967441D-01
  0.43548158D-01  0.34527960D-01  0.16519297D-01 -0.11883079D-07 -0.94217187D-08
 -0.45076560D-08 -0.26647099D-03  0.12754260D-02  0.26464229D-09  0.61759082D-02
 -0.82513274D-03 -0.53507755D-02 -0.94210376D-02 -0.21492947D-08  0.26527600D-09
  0.89683914D-01  0.16132538D+00  0.23517569D+00  0.23032055D+00  0.90580247D-01
 -0.78244148D-01 -0.11344768D-01  0.18582316D+00  0.14733332D+00  0.70489041D-01
 -0.29084693D-01 -0.23060336D-01 -0.11032813D-01  0.21653804D-08  0.17168618D-08
  0.82140241D-09  0.47230069D-02 -0.17880098D-02  0.32818409D-09 -0.49144601D-02
  0.64240649D-03  0.42720536D-02  0.14306993D-01 -0.80812173D-09  0.93588572D-09
  0.13603336D+00  0.24469977D+00  0.35671659D+00  0.34935226D+00  0.13739293D+00
 -0.11698444D+00 -0.11416341D-01 -0.86908841D-01 -0.68907278D-01 -0.32967478D-01
  0.43548121D-01  0.34527931D-01  0.16519283D-01 -0.12682502D-07 -0.10055556D-07
 -0.48109043D-08 -0.26647226D-03  0.12754292D-02 -0.36856968D-10 -0.61759182D-02
  0.82513631D-03  0.53507819D-02  0.94210376D-02 -0.74111549D-09  0.87695249D-09
  0.91619710D-02  0.15542730D-01  0.17694580D-01  0.16983325D-02  0.44175352D-02
 -0.75957105D-02 -0.36616703D-09  0.15733105D-01  0.26690261D-01  0.30385458D-01
  0.20950089D-02 -0.11652449D-01 -0.70341906D-02  0.33033139D-08  0.15278608D-01
  0.25919236D-01  0.29507686D-01  0.27611641D-02 -0.31660155D-02  0.12772047D-01
  0.13567967D-08 -0.91619879D-02 -0.15542759D-01 -0.17694613D-01 -0.16983377D-02
  0.44175362D-02 -0.75957221D-02  0.16249901D-08 -0.15278613D-01 -0.25919244D-01
 -0.29507696D-01 -0.27611661D-02 -0.31660177D-02  0.12772047D-01  0.23118583D-09
 -0.15733101D-01 -0.26690256D-01 -0.30385451D-01 -0.20950073D-02 -0.11652444D-01
 -0.70341882D-02  0.10647909D-08
MO    7     MO 0.0        OCC NO =    2.0000000  ORB. ENERGY =   -0.530373
  0.75412945D-01  0.13565445D+00  0.19775332D+00  0.19367075D+00  0.76166649D-01
 -0.70431457D-01 -0.93470421D-02  0.24570047D+00  0.19480815D+00  0.93202544D-01
  0.25753507D-01  0.20419143D-01  0.97691809D-02 -0.74299782D-08 -0.58909953D-08
 -0.28184433D-08  0.52434822D-02  0.32889641D-02 -0.85434267D-09  0.47534749D-02
 -0.58608221D-02  0.11073472D-02 -0.19396341D-01 -0.35073635D-08  0.70090178D-11
 -0.11809720D+00 -0.21243581D+00 -0.30968308D+00 -0.30328975D+00 -0.11927751D+00
  0.10659013D+00  0.17102062D-01  0.11431170D+00  0.90634138D-01  0.43362313D-01
 -0.41556402D-02 -0.32948760D-02 -0.15763756D-02 -0.41424317D-07 -0.32844034D-07
 -0.15713652D-07  0.29561277D-02 -0.70432383D-03 -0.25178434D-09 -0.34012806D-02
  0.45315584D-02 -0.11302778D-02  0.39006730D-02 -0.33477182D-08 -0.99469222D-09
  0.75412927D-01  0.13565441D+00  0.19775327D+00  0.19367070D+00  0.76166631D-01
 -0.70431440D-01 -0.93470449D-02 -0.24570050D+00 -0.19480817D+00 -0.93202553D-01
 -0.25753518D-01 -0.20419152D-01 -0.97691849D-02 -0.26767641D-07 -0.21223218D-07
 -0.10153876D-07 -0.52434838D-02 -0.32889658D-02  0.10454637D-09  0.47534713D-02
 -0.58608204D-02  0.11073490D-02 -0.19396339D-01 -0.21049043D-08 -0.50306514D-09
 -0.11809722D+00 -0.21243585D+00 -0.30968314D+00 -0.30328980D+00 -0.11927753D+00
  0.10659016D+00  0.17102070D-01 -0.11431160D+00 -0.90634061D-01 -0.43362277D-01
  0.41556488D-02  0.32948828D-02  0.15763789D-02  0.88976536D-08  0.70546688D-08
  0.33751825D-08 -0.29561251D-02  0.70432371D-03 -0.26176959D-09 -0.34012732D-02
  0.45315554D-02 -0.11302821D-02  0.39006655D-02 -0.27783065D-08 -0.57106469D-10
 -0.12835627D-01 -0.21774865D-01 -0.24789538D-01 -0.38560136D-02  0.32988008D-02
  0.76506481D-02  0.50861325D-09  0.25633821D-01  0.43486228D-01  0.49506782D-01
  0.53221430D-02 -0.10346634D-01 -0.98158588D-02  0.37284852D-08  0.21031432D-01
  0.35678554D-01  0.40618156D-01  0.40565767D-02  0.89514076D-03  0.13158621D-01
  0.77034319D-09 -0.12835624D-01 -0.21774860D-01 -0.24789532D-01 -0.38560127D-02
 -0.32987999D-02 -0.76506469D-02  0.11187153D-08  0.21031431D-01  0.35678552D-01
  0.40618154D-01  0.40565761D-02 -0.89513886D-03 -0.13158618D-01 -0.20368252D-09
  0.25633815D-01  0.43486218D-01  0.49506771D-01  0.53221423D-02  0.10346632D-01
  0.98158547D-02 -0.14248307D-08
MO    8     MO 0.0        OCC NO =    2.0000000  ORB. ENERGY =   -0.481751
 -0.89027494D-01 -0.16014459D+00 -0.23345438D+00 -0.22863477D+00 -0.89917267D-01
  0.83494588D-01  0.76803746D-02  0.28282824D-02  0.22424559D-02  0.10728637D-02
  0.25420600D+00  0.20155192D+00  0.96428980D-01  0.12334295D-07  0.97794730D-08
  0.46788173D-08 -0.33449501D-02  0.75629369D-02  0.25424351D-09  0.43291809D-03
 -0.64843179D-03  0.21551370D-03 -0.45922405D-02  0.23904912D-08  0.39346806D-09
  0.49551878D-01  0.89134997D-01  0.12993854D+00  0.12725599D+00  0.50047117D-01
 -0.44855828D-01 -0.15700475D-02 -0.98171617D-01 -0.77837177D-01 -0.37239832D-01
  0.17474317D+00  0.13854835D+00  0.66286026D-01  0.31954195D-07  0.25335473D-07
  0.12121313D-07 -0.37271016D-02  0.75101086D-02  0.58514429D-09  0.19289386D-02
 -0.17975085D-02 -0.13143009D-03 -0.13969243D-01  0.46396461D-10 -0.13535441D-08
  0.89027481D-01  0.16014457D+00  0.23345434D+00  0.22863474D+00  0.89917253D-01
 -0.83494577D-01 -0.76803661D-02  0.28281965D-02  0.22423878D-02  0.10728311D-02
  0.25420595D+00  0.20155188D+00  0.96428962D-01 -0.26045685D-07 -0.20650802D-07
 -0.98800140D-08 -0.33449568D-02  0.75629354D-02 -0.27139272D-10 -0.43291515D-03
  0.64842763D-03 -0.21551248D-03  0.45922464D-02 -0.58229127D-09  0.48861926D-08
 -0.49551884D-01 -0.89135007D-01 -0.12993856D+00 -0.12725601D+00 -0.50047123D-01
  0.44855837D-01  0.15700431D-02 -0.98171638D-01 -0.77837195D-01 -0.37239840D-01
  0.17474301D+00  0.13854822D+00  0.66285964D-01 -0.43631007D-09 -0.34593649D-09
 -0.16550725D-09 -0.37271052D-02  0.75101052D-02 -0.67528072D-09 -0.19289389D-02
  0.17975091D-02  0.13142980D-03  0.13969238D-01 -0.17663821D-08  0.25137151D-08
  0.35520105D-01  0.60257711D-01  0.68600233D-01  0.94267624D-02  0.19573329D-02
 -0.14899932D-01 -0.90461537D-09 -0.80781564D-02 -0.13704104D-01 -0.15601401D-01
 -0.34128526D-02  0.12867930D-02  0.62955992D-02 -0.78123344D-09 -0.23463905D-01
 -0.39805097D-01 -0.45316008D-01 -0.55842013D-02  0.13533374D-02 -0.91389969D-02
 -0.10882879D-08 -0.35520101D-01 -0.60257705D-01 -0.68600226D-01 -0.94267617D-02
  0.19573313D-02 -0.14899929D-01  0.35447487D-08  0.23463891D-01  0.39805074D-01
  0.45315982D-01  0.55841986D-02  0.13533360D-02 -0.91389926D-02 -0.12612950D-09
  0.80781663D-02  0.13704121D-01  0.15601421D-01  0.34128553D-02  0.12868004D-02
  0.62955957D-02 -0.42986911D-09
MO    9     MO 0.0        OCC NO =    2.0000000  ORB. ENERGY =   -0.406613
  0.40756883D-01  0.73314369D-01  0.10687567D+00  0.10466925D+00  0.41164222D-01
 -0.39331253D-01 -0.90991056D-02 -0.20357416D+00 -0.16140753D+00 -0.77222601D-01
  0.22734051D+00  0.18025112D+00  0.86237986D-01 -0.28817179D-07 -0.22848232D-07
 -0.10931336D-07 -0.47103471D-02  0.96745893D-02 -0.15559038D-08  0.66712055D-02
 -0.53599200D-02 -0.13112855D-02  0.63853387D-02 -0.14318045D-08  0.16140778D-08
 -0.22384526D-01 -0.40265773D-01 -0.58698335D-01 -0.57486523D-01 -0.22608245D-01
  0.20889900D-01  0.68417425D-02  0.39802568D+00  0.31558200D+00  0.15098467D+00
  0.35927993D-01  0.28486172D-01  0.13628709D-01 -0.93187754D-07 -0.73885630D-07
 -0.35349284D-07  0.11813828D-01  0.85114121D-03 -0.26793421D-08 -0.62674650D-02
  0.62760360D-02 -0.85709074D-05  0.13400255D-01 -0.40540990D-08 -0.47460308D-08
 -0.40756937D-01 -0.73314465D-01 -0.10687581D+00 -0.10466938D+00 -0.41164277D-01
  0.39331302D-01  0.90991566D-02 -0.20357493D+00 -0.16140814D+00 -0.77222892D-01
  0.22733947D+00  0.18025029D+00  0.86237589D-01 -0.47543754D-07 -0.37695942D-07
 -0.18034962D-07 -0.47104046D-02  0.96745762D-02 -0.15997317D-08 -0.66712064D-02
  0.53599205D-02  0.13112859D-02 -0.63853137D-02  0.12591670D-09  0.11365029D-08
  0.22384587D-01  0.40265883D-01  0.58698495D-01  0.57486679D-01  0.22608307D-01
 -0.20889961D-01 -0.68418086D-02  0.39802559D+00  0.31558194D+00  0.15098464D+00
  0.35926812D-01  0.28485236D-01  0.13628261D-01 -0.25386253D-07 -0.20127959D-07
 -0.96298689D-08  0.11813813D-01  0.85111154D-03 -0.79962413D-09  0.62674660D-02
 -0.62760376D-02  0.85716202D-05 -0.13400264D-01  0.20936147D-08  0.22082211D-08
  0.13173092D-01  0.22347355D-01  0.25441287D-01  0.36860096D-02 -0.33995449D-02
 -0.22386593D-02 -0.94855404D-09  0.35727183D-01  0.60609007D-01  0.69000165D-01
  0.11624862D-01 -0.53410729D-02 -0.86580927D-02  0.28747077D-08  0.75992696D-02
  0.12891702D-01  0.14676524D-01  0.18776071D-02  0.87101793D-02  0.44452728D-02
 -0.17638947D-08 -0.13172999D-01 -0.22347197D-01 -0.25441107D-01 -0.36859767D-02
 -0.33995658D-02 -0.22386320D-02  0.43021467D-10 -0.75993810D-02 -0.12891891D-01
 -0.14676739D-01 -0.18776382D-02  0.87101671D-02  0.44453012D-02 -0.45152661D-09
 -0.35727127D-01 -0.60608912D-01 -0.69000057D-01 -0.11624840D-01 -0.53410509D-02
 -0.86581056D-02  0.11841381D-08
MO   10     MO 0.0        OCC NO =    2.0000000  ORB. ENERGY =   -0.403058
 -0.10858762D-01 -0.19532977D-01 -0.28474636D-01 -0.27886784D-01 -0.10967288D-01
  0.88253702D-02  0.95078946D-02  0.23727862D+00  0.18813073D+00  0.90007850D-01
  0.25148098D+00  0.19939133D+00  0.95395285D-01  0.29106759D-07  0.23077831D-07
  0.11041183D-07  0.13743197D-01  0.56528119D-02  0.73040782D-09  0.26745311D-03
 -0.57960110D-03  0.31214799D-03  0.38423763D-02 -0.28129638D-08 -0.22068521D-08
  0.98321180D-02  0.17686228D-01  0.25782496D-01  0.25250223D-01  0.99303837D-02
 -0.99266681D-02 -0.11991040D-01 -0.13359226D-01 -0.10592108D-01 -0.50676085D-02
  0.35348512D+00  0.28026720D+00  0.13408893D+00  0.17203010D-07  0.13639724D-07
  0.65256865D-08  0.18029007D-02  0.92801869D-02  0.68217225D-09  0.17837414D-02
 -0.19640498D-02  0.18030846D-03 -0.65094769D-02 -0.33709261D-08 -0.49596324D-08
 -0.10858660D-01 -0.19532793D-01 -0.28474368D-01 -0.27886522D-01 -0.10967185D-01
  0.88252735D-02  0.95078724D-02 -0.23727779D+00 -0.18813007D+00 -0.90007532D-01
 -0.25148201D+00 -0.19939215D+00 -0.95395677D-01  0.18110786D-07  0.14359470D-07
  0.68700368D-08 -0.13743165D-01 -0.56528448D-02  0.60239149D-09  0.26746772D-03
 -0.57961151D-03  0.31214378D-03  0.38423900D-02 -0.37419249D-09 -0.21613895D-08
  0.98320443D-02  0.17686095D-01  0.25782303D-01  0.25250033D-01  0.99303093D-02
 -0.99265982D-02 -0.11991006D-01  0.13357890D-01  0.10591049D-01  0.50671017D-02
 -0.35348508D+00 -0.28026716D+00 -0.13408891D+00  0.13644776D-07  0.10818513D-07
  0.51759276D-08 -0.18029425D-02 -0.92801991D-02  0.33200007D-09  0.17837182D-02
 -0.19640263D-02  0.18030810D-03 -0.65094454D-02  0.44895281D-09 -0.34822728D-08
  0.21269565D-01  0.36082531D-01  0.41078063D-01  0.65286137D-02  0.63701262D-02
 -0.63068720D-02 -0.13271502D-10  0.15273828D-01  0.25911126D-01  0.29498454D-01
  0.61245999D-02 -0.75717184D-02  0.39490138D-02  0.27716590D-08 -0.33173602D-01
 -0.56277012D-01 -0.64068416D-01 -0.10161516D-01  0.26995689D-02 -0.81782098D-02
 -0.20490889D-08  0.21269642D-01  0.36082663D-01  0.41078213D-01  0.65286400D-02
 -0.63701165D-02  0.63068885D-02 -0.20945523D-08 -0.33173559D-01 -0.56276938D-01
 -0.64068332D-01 -0.10161499D-01 -0.26995985D-02  0.81781913D-02  0.89229978D-09
  0.15273935D-01  0.25911307D-01  0.29498660D-01  0.61246297D-02  0.75717291D-02
 -0.39489814D-02 -0.53760476D-09
MO   11     MO 0.0        OCC NO =    2.0000000  ORB. ENERGY =   -0.341754
  0.72336633D-03  0.13012071D-02  0.18968639D-02  0.18577036D-02  0.73059592D-03
 -0.44058343D-03  0.12634392D-01 -0.38277090D+00 -0.30348697D+00 -0.14519802D+00
  0.17379139D+00  0.13779371D+00  0.65924984D-01  0.24984010D-07  0.19809033D-07
  0.94772844D-08 -0.11589902D-02 -0.23564960D-02  0.65857704D-09 -0.99673952D-02
  0.11483207D-01 -0.15158120D-02  0.21807897D-01 -0.67428736D-08 -0.35257556D-09
  0.24342394D-01  0.43787627D-01  0.63832398D-01  0.62514593D-01  0.24585680D-01
 -0.26545314D-01 -0.21574646D-01  0.42023599D+00  0.33319186D+00  0.15940980D+00
 -0.34199240D-01 -0.27115499D-01 -0.12972935D-01 -0.83750938D-07 -0.66403476D-07
 -0.31769578D-07  0.17400263D-01 -0.41428664D-02 -0.28993924D-08 -0.42552362D-02
  0.54914664D-02 -0.12362301D-02  0.14819895D-01 -0.47153090D-08 -0.26888215D-08
  0.72346710D-03  0.13013884D-02  0.18971281D-02  0.18579624D-02  0.73069768D-03
 -0.44068175D-03  0.12634236D-01  0.38277034D+00  0.30348653D+00  0.14519781D+00
 -0.17379062D+00 -0.13779310D+00 -0.65924690D-01  0.11280176D-06  0.89436953D-07
  0.42789541D-07  0.11589268D-02  0.23564622D-02  0.40439164D-08 -0.99673718D-02
  0.11483178D-01 -0.15158066D-02  0.21807970D-01 -0.20003041D-08  0.15487931D-08
  0.24342365D-01  0.43787575D-01  0.63832321D-01  0.62514519D-01  0.24585651D-01
 -0.26545292D-01 -0.21574615D-01 -0.42023618D+00 -0.33319201D+00 -0.15940987D+00
  0.34197390D-01  0.27114032D-01  0.12972233D-01  0.56950471D-07  0.45154232D-07
  0.21603250D-07 -0.17400249D-01  0.41428346D-02  0.24129044D-08 -0.42551913D-02
  0.54914188D-02 -0.12362274D-02  0.14819948D-01  0.19180716D-08 -0.25216930D-08
  0.24960377D-01  0.42343771D-01  0.48206155D-01  0.13183112D-01 -0.74622927D-02
 -0.54578244D-02 -0.23590722D-10  0.28874134D-01  0.48983224D-01  0.55764823D-01