 ***
GAUSSIAN             89 MOL ORBITALS    804 PRIMITIVES       48 NUCLEI
  C    1    (CENTRE  1)  -5.90104255 -4.65598313 -2.09877003  CHARGE =  6.0
  C    2    (CENTRE  2)  -6.70869815 -6.13854263 -0.04533261  CHARGE =  6.0
  C    3    (CENTRE  3)  -5.38638062 -6.00072082  2.25966279  CHARGE =  6.0
  C    4    (CENTRE  4)  -3.27853928 -4.39938683  2.49334142  CHARGE =  6.0
  C    5    (CENTRE  5)  -2.43662476 -2.89900846  0.44484797  CHARGE =  6.0
  C    6    (CENTRE  6)  -3.79053933 -3.05259156 -1.85418054  CHARGE =  6.0
  C    7    (CENTRE  7)  -0.05057338 -1.26800909  0.78495220  CHARGE =  6.0
  C    8    (CENTRE  8)   2.35134125 -2.84096159  0.28327916  CHARGE =  6.0
  C    9    (CENTRE  9)  -0.05067775  1.26789075 -0.78492624  CHARGE =  6.0
  C   10    (CENTRE 10)   2.35110373  2.84103642 -0.28326572  CHARGE =  6.0
  C   11    (CENTRE 11)  -2.43684133  2.89875712 -0.44485701  CHARGE =  6.0
  C   12    (CENTRE 12)  -3.79094985  3.05213529  1.85406010  CHARGE =  6.0
  C   13    (CENTRE 13)  -5.90150371  4.65548579  2.09859605  CHARGE =  6.0
  C   14    (CENTRE 14)  -6.70900588  6.13819027  0.04521423  CHARGE =  6.0
  C   15    (CENTRE 15)  -5.38646278  6.00059560 -2.25967421  CHARGE =  6.0
  C   16    (CENTRE 16)  -3.27856817  4.39933556 -2.49329092  CHARGE =  6.0
  C   17    (CENTRE 17)   2.72825740  4.11744568  2.03585738  CHARGE =  6.0
  C   18    (CENTRE 18)   4.24806416  3.04476968 -2.15243642  CHARGE =  6.0
  C   19    (CENTRE 19)   6.45603757  4.46649021 -1.72357570  CHARGE =  6.0
  C   20    (CENTRE 20)   6.80960511  5.71621320  0.59594156  CHARGE =  6.0
  C   21    (CENTRE 21)   4.93394196  5.53472083  2.47575726  CHARGE =  6.0
  C   22    (CENTRE 22)   4.93462926 -5.53417043 -2.47578431  CHARGE =  6.0
  C   23    (CENTRE 23)   2.72879915 -4.11709262 -2.03593729  CHARGE =  6.0
  C   24    (CENTRE 24)   4.24818136 -3.04471837  2.15258399  CHARGE =  6.0
  C   25    (CENTRE 25)   6.45629238 -4.46622604  1.72377317  CHARGE =  6.0
  C   26    (CENTRE 26)   6.81014019 -5.71571580 -0.59583287  CHARGE =  6.0
  H   27    (CENTRE 27)  -6.92548637 -4.73402790 -3.90683934  CHARGE =  1.0
  H   28    (CENTRE 28)  -8.36130305 -7.38549467 -0.23583431  CHARGE =  1.0
  H   29    (CENTRE 29)  -6.00031389 -7.14259672  3.88575667  CHARGE =  1.0
  H   30    (CENTRE 30)  -2.25449293 -4.31531577  4.30312848  CHARGE =  1.0
  H   31    (CENTRE 31)  -3.22345264 -1.89519994 -3.48198847  CHARGE =  1.0
  H   32    (CENTRE 32)   0.02888402 -0.73294498  2.80815891  CHARGE =  1.0
  H   33    (CENTRE 33)   0.02878653  0.73280412 -2.80812865  CHARGE =  1.0
  H   34    (CENTRE 34)  -3.22397055  1.89466837  3.48184939  CHARGE =  1.0
  H   35    (CENTRE 35)  -6.92609024  4.73337257  3.90659150  CHARGE =  1.0
  H   36    (CENTRE 36)  -8.36164917  7.38509929  0.23566435  CHARGE =  1.0
  H   37    (CENTRE 37)  -6.00026984  7.14260467 -3.88572269  CHARGE =  1.0
  H   38    (CENTRE 38)  -2.25433401  4.31545133 -4.30298000  CHARGE =  1.0
  H   39    (CENTRE 39)   1.26823651  4.03154064  3.51225643  CHARGE =  1.0
  H   40    (CENTRE 40)   3.99871528  2.06424291 -3.96955221  CHARGE =  1.0
  H   41    (CENTRE 41)   7.90448045  4.59398319 -3.21031901  CHARGE =  1.0
  H   42    (CENTRE 42)   8.53155052  6.83058145  0.93654432  CHARGE =  1.0
  H   43    (CENTRE 43)   5.18275808  6.51420016  4.29348517  CHARGE =  1.0
  H   44    (CENTRE 44)   5.18366527 -6.51344728 -4.29359170  CHARGE =  1.0
  H   45    (CENTRE 45)   1.26892519 -4.03113056 -3.51247493  CHARGE =  1.0
  H   46    (CENTRE 46)   3.99861284 -2.06437344  3.96976461  CHARGE =  1.0
  H   47    (CENTRE 47)   7.90463115 -4.59373770  3.21061673  CHARGE =  1.0
  H   48    (CENTRE 48)   8.53220104 -6.82991396 -0.93640575  CHARGE =  1.0
CENTRE ASSIGNMENTS    1  1  1  1  1  1  1  1  1  1  1  1  1  1  1  1  1  1  1  1
CENTRE ASSIGNMENTS    1  1  1  1  1  2  2  2  2  2  2  2  2  2  2  2  2  2  2  2
CENTRE ASSIGNMENTS    2  2  2  2  2  2  2  2  2  2  3  3  3  3  3  3  3  3  3  3
CENTRE ASSIGNMENTS    3  3  3  3  3  3  3  3  3  3  3  3  3  3  3  4  4  4  4  4
CENTRE ASSIGNMENTS    4  4  4  4  4  4  4  4  4  4  4  4  4  4  4  4  4  4  4  4
CENTRE ASSIGNMENTS    5  5  5  5  5  5  5  5  5  5  5  5  5  5  5  5  5  5  5  5
CENTRE ASSIGNMENTS    5  5  5  5  5  6  6  6  6  6  6  6  6  6  6  6  6  6  6  6
CENTRE ASSIGNMENTS    6  6  6  6  6  6  6  6  6  6  7  7  7  7  7  7  7  7  7  7
CENTRE ASSIGNMENTS    7  7  7  7  7  7  7  7  7  7  7  7  7  7  7  8  8  8  8  8
CENTRE ASSIGNMENTS    8  8  8  8  8  8  8  8  8  8  8  8  8  8  8  8  8  8  8  8
CENTRE ASSIGNMENTS    9  9  9  9  9  9  9  9  9  9  9  9  9  9  9  9  9  9  9  9
CENTRE ASSIGNMENTS    9  9  9  9  9 10 10 10 10 10 10 10 10 10 10 10 10 10 10 10
CENTRE ASSIGNMENTS   10 10 10 10 10 10 10 10 10 10 11 11 11 11 11 11 11 11 11 11
CENTRE ASSIGNMENTS   11 11 11 11 11 11 11 11 11 11 11 11 11 11 11 12 12 12 12 12
CENTRE ASSIGNMENTS   12 12 12 12 12 12 12 12 12 12 12 12 12 12 12 12 12 12 12 12
CENTRE ASSIGNMENTS   13 13 13 13 13 13 13 13 13 13 13 13 13 13 13 13 13 13 13 13
CENTRE ASSIGNMENTS   13 13 13 13 13 14 14 14 14 14 14 14 14 14 14 14 14 14 14 14
CENTRE ASSIGNMENTS   14 14 14 14 14 14 14 14 14 14 15 15 15 15 15 15 15 15 15 15
CENTRE ASSIGNMENTS   15 15 15 15 15 15 15 15 15 15 15 15 15 15 15 16 16 16 16 16
CENTRE ASSIGNMENTS   16 16 16 16 16 16 16 16 16 16 16 16 16 16 16 16 16 16 16 16
CENTRE ASSIGNMENTS   17 17 17 17 17 17 17 17 17 17 17 17 17 17 17 17 17 17 17 17
CENTRE ASSIGNMENTS   17 17 17 17 17 18 18 18 18 18 18 18 18 18 18 18 18 18 18 18
CENTRE ASSIGNMENTS   18 18 18 18 18 18 18 18 18 18 19 19 19 19 19 19 19 19 19 19
CENTRE ASSIGNMENTS   19 19 19 19 19 19 19 19 19 19 19 19 19 19 19 20 20 20 20 20
CENTRE ASSIGNMENTS   20 20 20 20 20 20 20 20 20 20 20 20 20 20 20 20 20 20 20 20
CENTRE ASSIGNMENTS   21 21 21 21 21 21 21 21 21 21 21 21 21 21 21 21 21 21 21 21
CENTRE ASSIGNMENTS   21 21 21 21 21 22 22 22 22 22 22 22 22 22 22 22 22 22 22 22
CENTRE ASSIGNMENTS   22 22 22 22 22 22 22 22 22 22 23 23 23 23 23 23 23 23 23 23
CENTRE ASSIGNMENTS   23 23 23 23 23 23 23 23 23 23 23 23 23 23 23 24 24 24 24 24
CENTRE ASSIGNMENTS   24 24 24 24 24 24 24 24 24 24 24 24 24 24 24 24 24 24 24 24
CENTRE ASSIGNMENTS   25 25 25 25 25 25 25 25 25 25 25 25 25 25 25 25 25 25 25 25
CENTRE ASSIGNMENTS   25 25 25 25 25 26 26 26 26 26 26 26 26 26 26 26 26 26 26 26
CENTRE ASSIGNMENTS   26 26 26 26 26 26 26 26 26 26 27 27 27 27 27 27 27 28 28 28
CENTRE ASSIGNMENTS   28 28 28 28 29 29 29 29 29 29 29 30 30 30 30 30 30 30 31 31
CENTRE ASSIGNMENTS   31 31 31 31 31 32 32 32 32 32 32 32 33 33 33 33 33 33 33 34
CENTRE ASSIGNMENTS   34 34 34 34 34 34 35 35 35 35 35 35 35 36 36 36 36 36 36 36
CENTRE ASSIGNMENTS   37 37 37 37 37 37 37 38 38 38 38 38 38 38 39 39 39 39 39 39
CENTRE ASSIGNMENTS   39 40 40 40 40 40 40 40 41 41 41 41 41 41 41 42 42 42 42 42
CENTRE ASSIGNMENTS   42 42 43 43 43 43 43 43 43 44 44 44 44 44 44 44 45 45 45 45
CENTRE ASSIGNMENTS   45 45 45 46 46 46 46 46 46 46 47 47 47 47 47 47 47 48 48 48
CENTRE ASSIGNMENTS   48 48 48 48
TYPE ASSIGNMENTS      1  1  1  1  1  1  1  2  2  2  3  3  3  4  4  4  2  3  4  5
TYPE ASSIGNMENTS      6  7  8  9 10  1  1  1  1  1  1  1  2  2  2  3  3  3  4  4
TYPE ASSIGNMENTS      4  2  3  4  5  6  7  8  9 10  1  1  1  1  1  1  1  2  2  2
TYPE ASSIGNMENTS      3  3  3  4  4  4  2  3  4  5  6  7  8  9 10  1  1  1  1  1
TYPE ASSIGNMENTS      1  1  2  2  2  3  3  3  4  4  4  2  3  4  5  6  7  8  9 10
TYPE ASSIGNMENTS      1  1  1  1  1  1  1  2  2  2  3  3  3  4  4  4  2  3  4  5
TYPE ASSIGNMENTS      6  7  8  9 10  1  1  1  1  1  1  1  2  2  2  3  3  3  4  4
TYPE ASSIGNMENTS      4  2  3  4  5  6  7  8  9 10  1  1  1  1  1  1  1  2  2  2
TYPE ASSIGNMENTS      3  3  3  4  4  4  2  3  4  5  6  7  8  9 10  1  1  1  1  1
TYPE ASSIGNMENTS      1  1  2  2  2  3  3  3  4  4  4  2  3  4  5  6  7  8  9 10
TYPE ASSIGNMENTS      1  1  1  1  1  1  1  2  2  2  3  3  3  4  4  4  2  3  4  5
TYPE ASSIGNMENTS      6  7  8  9 10  1  1  1  1  1  1  1  2  2  2  3  3  3  4  4
TYPE ASSIGNMENTS      4  2  3  4  5  6  7  8  9 10  1  1  1  1  1  1  1  2  2  2
TYPE ASSIGNMENTS      3  3  3  4  4  4  2  3  4  5  6  7  8  9 10  1  1  1  1  1
TYPE ASSIGNMENTS      1  1  2  2  2  3  3  3  4  4  4  2  3  4  5  6  7  8  9 10
TYPE ASSIGNMENTS      1  1  1  1  1  1  1  2  2  2  3  3  3  4  4  4  2  3  4  5
TYPE ASSIGNMENTS      6  7  8  9 10  1  1  1  1  1  1  1  2  2  2  3  3  3  4  4
TYPE ASSIGNMENTS      4  2  3  4  5  6  7  8  9 10  1  1  1  1  1  1  1  2  2  2
TYPE ASSIGNMENTS      3  3  3  4  4  4  2  3  4  5  6  7  8  9 10  1  1  1  1  1
TYPE ASSIGNMENTS      1  1  2  2  2  3  3  3  4  4  4  2  3  4  5  6  7  8  9 10
TYPE ASSIGNMENTS      1  1  1  1  1  1  1  2  2  2  3  3  3  4  4  4  2  3  4  5
TYPE ASSIGNMENTS      6  7  8  9 10  1  1  1  1  1  1  1  2  2  2  3  3  3  4  4
TYPE ASSIGNMENTS      4  2  3  4  5  6  7  8  9 10  1  1  1  1  1  1  1  2  2  2
TYPE ASSIGNMENTS      3  3  3  4  4  4  2  3  4  5  6  7  8  9 10  1  1  1  1  1
TYPE ASSIGNMENTS      1  1  2  2  2  3  3  3  4  4  4  2  3  4  5  6  7  8  9 10
TYPE ASSIGNMENTS      1  1  1  1  1  1  1  2  2  2  3  3  3  4  4  4  2  3  4  5
TYPE ASSIGNMENTS      6  7  8  9 10  1  1  1  1  1  1  1  2  2  2  3  3  3  4  4
TYPE ASSIGNMENTS      4  2  3  4  5  6  7  8  9 10  1  1  1  1  1  1  1  2  2  2
TYPE ASSIGNMENTS      3  3  3  4  4  4  2  3  4  5  6  7  8  9 10  1  1  1  1  1
TYPE ASSIGNMENTS      1  1  2  2  2  3  3  3  4  4  4  2  3  4  5  6  7  8  9 10
TYPE ASSIGNMENTS      1  1  1  1  1  1  1  2  2  2  3  3  3  4  4  4  2  3  4  5
TYPE ASSIGNMENTS      6  7  8  9 10  1  1  1  1  1  1  1  2  2  2  3  3  3  4  4
TYPE ASSIGNMENTS      4  2  3  4  5  6  7  8  9 10  1  1  1  1  2  3  4  1  1  1
TYPE ASSIGNMENTS      1  2  3  4  1  1  1  1  2  3  4  1  1  1  1  2  3  4  1  1
TYPE ASSIGNMENTS      1  1  2  3  4  1  1  1  1  2  3  4  1  1  1  1  2  3  4  1
TYPE ASSIGNMENTS      1  1  1  2  3  4  1  1  1  1  2  3  4  1  1  1  1  2  3  4
TYPE ASSIGNMENTS      1  1  1  1  2  3  4  1  1  1  1  2  3  4  1  1  1  1  2  3
TYPE ASSIGNMENTS      4  1  1  1  1  2  3  4  1  1  1  1  2  3  4  1  1  1  1  2
TYPE ASSIGNMENTS      3  4  1  1  1  1  2  3  4  1  1  1  1  2  3  4  1  1  1  1
TYPE ASSIGNMENTS      2  3  4  1  1  1  1  2  3  4  1  1  1  1  2  3  4  1  1  1
TYPE ASSIGNMENTS      1  2  3  4
EXPONENTS  0.1238402D+04 0.1862900D+03 0.4225118D+02 0.1167656D+02 0.3593051D+01
EXPONENTS  0.4024515D+00 0.1309018D+00 0.9468097D+01 0.2010355D+01 0.5477100D+00
EXPONENTS  0.9468097D+01 0.2010355D+01 0.5477100D+00 0.9468097D+01 0.2010355D+01
EXPONENTS  0.5477100D+00 0.1526861D+00 0.1526861D+00 0.1526861D+00 0.8000000D+00
EXPONENTS  0.8000000D+00 0.8000000D+00 0.8000000D+00 0.8000000D+00 0.8000000D+00
EXPONENTS  0.1238402D+04 0.1862900D+03 0.4225118D+02 0.1167656D+02 0.3593051D+01
EXPONENTS  0.4024515D+00 0.1309018D+00 0.9468097D+01 0.2010355D+01 0.5477100D+00
EXPONENTS  0.9468097D+01 0.2010355D+01 0.5477100D+00 0.9468097D+01 0.2010355D+01
EXPONENTS  0.5477100D+00 0.1526861D+00 0.1526861D+00 0.1526861D+00 0.8000000D+00
EXPONENTS  0.8000000D+00 0.8000000D+00 0.8000000D+00 0.8000000D+00 0.8000000D+00
EXPONENTS  0.1238402D+04 0.1862900D+03 0.4225118D+02 0.1167656D+02 0.3593051D+01
EXPONENTS  0.4024515D+00 0.1309018D+00 0.9468097D+01 0.2010355D+01 0.5477100D+00
EXPONENTS  0.9468097D+01 0.2010355D+01 0.5477100D+00 0.9468097D+01 0.2010355D+01
EXPONENTS  0.5477100D+00 0.1526861D+00 0.1526861D+00 0.1526861D+00 0.8000000D+00
EXPONENTS  0.8000000D+00 0.8000000D+00 0.8000000D+00 0.8000000D+00 0.8000000D+00
EXPONENTS  0.1238402D+04 0.1862900D+03 0.4225118D+02 0.1167656D+02 0.3593051D+01
EXPONENTS  0.4024515D+00 0.1309018D+00 0.9468097D+01 0.2010355D+01 0.5477100D+00
EXPONENTS  0.9468097D+01 0.2010355D+01 0.5477100D+00 0.9468097D+01 0.2010355D+01
EXPONENTS  0.5477100D+00 0.1526861D+00 0.1526861D+00 0.1526861D+00 0.8000000D+00
EXPONENTS  0.8000000D+00 0.8000000D+00 0.8000000D+00 0.8000000D+00 0.8000000D+00
EXPONENTS  0.1238402D+04 0.1862900D+03 0.4225118D+02 0.1167656D+02 0.3593051D+01
EXPONENTS  0.4024515D+00 0.1309018D+00 0.9468097D+01 0.2010355D+01 0.5477100D+00
EXPONENTS  0.9468097D+01 0.2010355D+01 0.5477100D+00 0.9468097D+01 0.2010355D+01
EXPONENTS  0.5477100D+00 0.1526861D+00 0.1526861D+00 0.1526861D+00 0.8000000D+00
EXPONENTS  0.8000000D+00 0.8000000D+00 0.8000000D+00 0.8000000D+00 0.8000000D+00
EXPONENTS  0.1238402D+04 0.1862900D+03 0.4225118D+02 0.1167656D+02 0.3593051D+01
EXPONENTS  0.4024515D+00 0.1309018D+00 0.9468097D+01 0.2010355D+01 0.5477100D+00
EXPONENTS  0.9468097D+01 0.2010355D+01 0.5477100D+00 0.9468097D+01 0.2010355D+01
EXPONENTS  0.5477100D+00 0.1526861D+00 0.1526861D+00 0.1526861D+00 0.8000000D+00
EXPONENTS  0.8000000D+00 0.8000000D+00 0.8000000D+00 0.8000000D+00 0.8000000D+00
EXPONENTS  0.1238402D+04 0.1862900D+03 0.4225118D+02 0.1167656D+02 0.3593051D+01
EXPONENTS  0.4024515D+00 0.1309018D+00 0.9468097D+01 0.2010355D+01 0.5477100D+00
EXPONENTS  0.9468097D+01 0.2010355D+01 0.5477100D+00 0.9468097D+01 0.2010355D+01
EXPONENTS  0.5477100D+00 0.1526861D+00 0.1526861D+00 0.1526861D+00 0.8000000D+00
EXPONENTS  0.8000000D+00 0.8000000D+00 0.8000000D+00 0.8000000D+00 0.8000000D+00
EXPONENTS  0.1238402D+04 0.1862900D+03 0.4225118D+02 0.1167656D+02 0.3593051D+01
EXPONENTS  0.4024515D+00 0.1309018D+00 0.9468097D+01 0.2010355D+01 0.5477100D+00
EXPONENTS  0.9468097D+01 0.2010355D+01 0.5477100D+00 0.9468097D+01 0.2010355D+01
EXPONENTS  0.5477100D+00 0.1526861D+00 0.1526861D+00 0.1526861D+00 0.8000000D+00
EXPONENTS  0.8000000D+00 0.8000000D+00 0.8000000D+00 0.8000000D+00 0.8000000D+00
EXPONENTS  0.1238402D+04 0.1862900D+03 0.4225118D+02 0.1167656D+02 0.3593051D+01
EXPONENTS  0.4024515D+00 0.1309018D+00 0.9468097D+01 0.2010355D+01 0.5477100D+00
EXPONENTS  0.9468097D+01 0.2010355D+01 0.5477100D+00 0.9468097D+01 0.2010355D+01
EXPONENTS  0.5477100D+00 0.1526861D+00 0.1526861D+00 0.1526861D+00 0.8000000D+00
EXPONENTS  0.8000000D+00 0.8000000D+00 0.8000000D+00 0.8000000D+00 0.8000000D+00
EXPONENTS  0.1238402D+04 0.1862900D+03 0.4225118D+02 0.1167656D+02 0.3593051D+01
EXPONENTS  0.4024515D+00 0.1309018D+00 0.9468097D+01 0.2010355D+01 0.5477100D+00
EXPONENTS  0.9468097D+01 0.2010355D+01 0.5477100D+00 0.9468097D+01 0.2010355D+01
EXPONENTS  0.5477100D+00 0.1526861D+00 0.1526861D+00 0.1526861D+00 0.8000000D+00
EXPONENTS  0.8000000D+00 0.8000000D+00 0.8000000D+00 0.8000000D+00 0.8000000D+00
EXPONENTS  0.1238402D+04 0.1862900D+03 0.4225118D+02 0.1167656D+02 0.3593051D+01
EXPONENTS  0.4024515D+00 0.1309018D+00 0.9468097D+01 0.2010355D+01 0.5477100D+00
EXPONENTS  0.9468097D+01 0.2010355D+01 0.5477100D+00 0.9468097D+01 0.2010355D+01
EXPONENTS  0.5477100D+00 0.1526861D+00 0.1526861D+00 0.1526861D+00 0.8000000D+00
EXPONENTS  0.8000000D+00 0.8000000D+00 0.8000000D+00 0.8000000D+00 0.8000000D+00
EXPONENTS  0.1238402D+04 0.1862900D+03 0.4225118D+02 0.1167656D+02 0.3593051D+01
EXPONENTS  0.4024515D+00 0.1309018D+00 0.9468097D+01 0.2010355D+01 0.5477100D+00
EXPONENTS  0.9468097D+01 0.2010355D+01 0.5477100D+00 0.9468097D+01 0.2010355D+01
EXPONENTS  0.5477100D+00 0.1526861D+00 0.1526861D+00 0.1526861D+00 0.8000000D+00
EXPONENTS  0.8000000D+00 0.8000000D+00 0.8000000D+00 0.8000000D+00 0.8000000D+00
EXPONENTS  0.1238402D+04 0.1862900D+03 0.4225118D+02 0.1167656D+02 0.3593051D+01
EXPONENTS  0.4024515D+00 0.1309018D+00 0.9468097D+01 0.2010355D+01 0.5477100D+00
EXPONENTS  0.9468097D+01 0.2010355D+01 0.5477100D+00 0.9468097D+01 0.2010355D+01
EXPONENTS  0.5477100D+00 0.1526861D+00 0.1526861D+00 0.1526861D+00 0.8000000D+00
EXPONENTS  0.8000000D+00 0.8000000D+00 0.8000000D+00 0.8000000D+00 0.8000000D+00
EXPONENTS  0.1238402D+04 0.1862900D+03 0.4225118D+02 0.1167656D+02 0.3593051D+01
EXPONENTS  0.4024515D+00 0.1309018D+00 0.9468097D+01 0.2010355D+01 0.5477100D+00
EXPONENTS  0.9468097D+01 0.2010355D+01 0.5477100D+00 0.9468097D+01 0.2010355D+01
EXPONENTS  0.5477100D+00 0.1526861D+00 0.1526861D+00 0.1526861D+00 0.8000000D+00
EXPONENTS  0.8000000D+00 0.8000000D+00 0.8000000D+00 0.8000000D+00 0.8000000D+00
EXPONENTS  0.1238402D+04 0.1862900D+03 0.4225118D+02 0.1167656D+02 0.3593051D+01
EXPONENTS  0.4024515D+00 0.1309018D+00 0.9468097D+01 0.2010355D+01 0.5477100D+00
EXPONENTS  0.9468097D+01 0.2010355D+01 0.5477100D+00 0.9468097D+01 0.2010355D+01
EXPONENTS  0.5477100D+00 0.1526861D+00 0.1526861D+00 0.1526861D+00 0.8000000D+00
EXPONENTS  0.8000000D+00 0.8000000D+00 0.8000000D+00 0.8000000D+00 0.8000000D+00
EXPONENTS  0.1238402D+04 0.1862900D+03 0.4225118D+02 0.1167656D+02 0.3593051D+01
EXPONENTS  0.4024515D+00 0.1309018D+00 0.9468097D+01 0.2010355D+01 0.5477100D+00
EXPONENTS  0.9468097D+01 0.2010355D+01 0.5477100D+00 0.9468097D+01 0.2010355D+01
EXPONENTS  0.5477100D+00 0.1526861D+00 0.1526861D+00 0.1526861D+00 0.8000000D+00
EXPONENTS  0.8000000D+00 0.8000000D+00 0.8000000D+00 0.8000000D+00 0.8000000D+00
EXPONENTS  0.1238402D+04 0.1862900D+03 0.4225118D+02 0.1167656D+02 0.3593051D+01
EXPONENTS  0.4024515D+00 0.1309018D+00 0.9468097D+01 0.2010355D+01 0.5477100D+00
EXPONENTS  0.9468097D+01 0.2010355D+01 0.5477100D+00 0.9468097D+01 0.2010355D+01
EXPONENTS  0.5477100D+00 0.1526861D+00 0.1526861D+00 0.1526861D+00 0.8000000D+00
EXPONENTS  0.8000000D+00 0.8000000D+00 0.8000000D+00 0.8000000D+00 0.8000000D+00
EXPONENTS  0.1238402D+04 0.1862900D+03 0.4225118D+02 0.1167656D+02 0.3593051D+01
EXPONENTS  0.4024515D+00 0.1309018D+00 0.9468097D+01 0.2010355D+01 0.5477100D+00
EXPONENTS  0.9468097D+01 0.2010355D+01 0.5477100D+00 0.9468097D+01 0.2010355D+01
EXPONENTS  0.5477100D+00 0.1526861D+00 0.1526861D+00 0.1526861D+00 0.8000000D+00
EXPONENTS  0.8000000D+00 0.8000000D+00 0.8000000D+00 0.8000000D+00 0.8000000D+00
EXPONENTS  0.1238402D+04 0.1862900D+03 0.4225118D+02 0.1167656D+02 0.3593051D+01
EXPONENTS  0.4024515D+00 0.1309018D+00 0.9468097D+01 0.2010355D+01 0.5477100D+00
EXPONENTS  0.9468097D+01 0.2010355D+01 0.5477100D+00 0.9468097D+01 0.2010355D+01
EXPONENTS  0.5477100D+00 0.1526861D+00 0.1526861D+00 0.1526861D+00 0.8000000D+00
EXPONENTS  0.8000000D+00 0.8000000D+00 0.8000000D+00 0.8000000D+00 0.8000000D+00
EXPONENTS  0.1238402D+04 0.1862900D+03 0.4225118D+02 0.1167656D+02 0.3593051D+01
EXPONENTS  0.4024515D+00 0.1309018D+00 0.9468097D+01 0.2010355D+01 0.5477100D+00
EXPONENTS  0.9468097D+01 0.2010355D+01 0.5477100D+00 0.9468097D+01 0.2010355D+01
EXPONENTS  0.5477100D+00 0.1526861D+00 0.1526861D+00 0.1526861D+00 0.8000000D+00
EXPONENTS  0.8000000D+00 0.8000000D+00 0.8000000D+00 0.8000000D+00 0.8000000D+00
EXPONENTS  0.1238402D+04 0.1862900D+03 0.4225118D+02 0.1167656D+02 0.3593051D+01
EXPONENTS  0.4024515D+00 0.1309018D+00 0.9468097D+01 0.2010355D+01 0.5477100D+00
EXPONENTS  0.9468097D+01 0.2010355D+01 0.5477100D+00 0.9468097D+01 0.2010355D+01
EXPONENTS  0.5477100D+00 0.1526861D+00 0.1526861D+00 0.1526861D+00 0.8000000D+00
EXPONENTS  0.8000000D+00 0.8000000D+00 0.8000000D+00 0.8000000D+00 0.8000000D+00
EXPONENTS  0.1238402D+04 0.1862900D+03 0.4225118D+02 0.1167656D+02 0.3593051D+01
EXPONENTS  0.4024515D+00 0.1309018D+00 0.9468097D+01 0.2010355D+01 0.5477100D+00
EXPONENTS  0.9468097D+01 0.2010355D+01 0.5477100D+00 0.9468097D+01 0.2010355D+01
EXPONENTS  0.5477100D+00 0.1526861D+00 0.1526861D+00 0.1526861D+00 0.8000000D+00
EXPONENTS  0.8000000D+00 0.8000000D+00 0.8000000D+00 0.8000000D+00 0.8000000D+00
EXPONENTS  0.1238402D+04 0.1862900D+03 0.4225118D+02 0.1167656D+02 0.3593051D+01
EXPONENTS  0.4024515D+00 0.1309018D+00 0.9468097D+01 0.2010355D+01 0.5477100D+00
EXPONENTS  0.9468097D+01 0.2010355D+01 0.5477100D+00 0.9468097D+01 0.2010355D+01
EXPONENTS  0.5477100D+00 0.1526861D+00 0.1526861D+00 0.1526861D+00 0.8000000D+00
EXPONENTS  0.8000000D+00 0.8000000D+00 0.8000000D+00 0.8000000D+00 0.8000000D+00
EXPONENTS  0.1238402D+04 0.1862900D+03 0.4225118D+02 0.1167656D+02 0.3593051D+01
EXPONENTS  0.4024515D+00 0.1309018D+00 0.9468097D+01 0.2010355D+01 0.5477100D+00
EXPONENTS  0.9468097D+01 0.2010355D+01 0.5477100D+00 0.9468097D+01 0.2010355D+01
EXPONENTS  0.5477100D+00 0.1526861D+00 0.1526861D+00 0.1526861D+00 0.8000000D+00
EXPONENTS  0.8000000D+00 0.8000000D+00 0.8000000D+00 0.8000000D+00 0.8000000D+00
EXPONENTS  0.1238402D+04 0.1862900D+03 0.4225118D+02 0.1167656D+02 0.3593051D+01
EXPONENTS  0.4024515D+00 0.1309018D+00 0.9468097D+01 0.2010355D+01 0.5477100D+00
EXPONENTS  0.9468097D+01 0.2010355D+01 0.5477100D+00 0.9468097D+01 0.2010355D+01
EXPONENTS  0.5477100D+00 0.1526861D+00 0.1526861D+00 0.1526861D+00 0.8000000D+00
EXPONENTS  0.8000000D+00 0.8000000D+00 0.8000000D+00 0.8000000D+00 0.8000000D+00
EXPONENTS  0.1238402D+04 0.1862900D+03 0.4225118D+02 0.1167656D+02 0.3593051D+01
EXPONENTS  0.4024515D+00 0.1309018D+00 0.9468097D+01 0.2010355D+01 0.5477100D+00
EXPONENTS  0.9468097D+01 0.2010355D+01 0.5477100D+00 0.9468097D+01 0.2010355D+01
EXPONENTS  0.5477100D+00 0.1526861D+00 0.1526861D+00 0.1526861D+00 0.8000000D+00
EXPONENTS  0.8000000D+00 0.8000000D+00 0.8000000D+00 0.8000000D+00 0.8000000D+00
EXPONENTS  0.1301070D+02 0.1962257D+01 0.4445380D+00 0.1219496D+00 0.8000000D+00
EXPONENTS  0.8000000D+00 0.8000000D+00 0.1301070D+02 0.1962257D+01 0.4445380D+00
EXPONENTS  0.1219496D+00 0.8000000D+00 0.8000000D+00 0.8000000D+00 0.1301070D+02
EXPONENTS  0.1962257D+01 0.4445380D+00 0.1219496D+00 0.8000000D+00 0.8000000D+00
EXPONENTS  0.8000000D+00 0.1301070D+02 0.1962257D+01 0.4445380D+00 0.1219496D+00
EXPONENTS  0.8000000D+00 0.8000000D+00 0.8000000D+00 0.1301070D+02 0.1962257D+01
EXPONENTS  0.4445380D+00 0.1219496D+00 0.8000000D+00 0.8000000D+00 0.8000000D+00
EXPONENTS  0.1301070D+02 0.1962257D+01 0.4445380D+00 0.1219496D+00 0.8000000D+00
EXPONENTS  0.8000000D+00 0.8000000D+00 0.1301070D+02 0.1962257D+01 0.4445380D+00
EXPONENTS  0.1219496D+00 0.8000000D+00 0.8000000D+00 0.8000000D+00 0.1301070D+02
EXPONENTS  0.1962257D+01 0.4445380D+00 0.1219496D+00 0.8000000D+00 0.8000000D+00
EXPONENTS  0.8000000D+00 0.1301070D+02 0.1962257D+01 0.4445380D+00 0.1219496D+00
EXPONENTS  0.8000000D+00 0.8000000D+00 0.8000000D+00 0.1301070D+02 0.1962257D+01
EXPONENTS  0.4445380D+00 0.1219496D+00 0.8000000D+00 0.8000000D+00 0.8000000D+00
EXPONENTS  0.1301070D+02 0.1962257D+01 0.4445380D+00 0.1219496D+00 0.8000000D+00
EXPONENTS  0.8000000D+00 0.8000000D+00 0.1301070D+02 0.1962257D+01 0.4445380D+00
EXPONENTS  0.1219496D+00 0.8000000D+00 0.8000000D+00 0.8000000D+00 0.1301070D+02
EXPONENTS  0.1962257D+01 0.4445380D+00 0.1219496D+00 0.8000000D+00 0.8000000D+00
EXPONENTS  0.8000000D+00 0.1301070D+02 0.1962257D+01 0.4445380D+00 0.1219496D+00
EXPONENTS  0.8000000D+00 0.8000000D+00 0.8000000D+00 0.1301070D+02 0.1962257D+01
EXPONENTS  0.4445380D+00 0.1219496D+00 0.8000000D+00 0.8000000D+00 0.8000000D+00
EXPONENTS  0.1301070D+02 0.1962257D+01 0.4445380D+00 0.1219496D+00 0.8000000D+00
EXPONENTS  0.8000000D+00 0.8000000D+00 0.1301070D+02 0.1962257D+01 0.4445380D+00
EXPONENTS  0.1219496D+00 0.8000000D+00 0.8000000D+00 0.8000000D+00 0.1301070D+02
EXPONENTS  0.1962257D+01 0.4445380D+00 0.1219496D+00 0.8000000D+00 0.8000000D+00
EXPONENTS  0.8000000D+00 0.1301070D+02 0.1962257D+01 0.4445380D+00 0.1219496D+00
EXPONENTS  0.8000000D+00 0.8000000D+00 0.8000000D+00 0.1301070D+02 0.1962257D+01
EXPONENTS  0.4445380D+00 0.1219496D+00 0.8000000D+00 0.8000000D+00 0.8000000D+00
EXPONENTS  0.1301070D+02 0.1962257D+01 0.4445380D+00 0.1219496D+00 0.8000000D+00
EXPONENTS  0.8000000D+00 0.8000000D+00 0.1301070D+02 0.1962257D+01 0.4445380D+00
EXPONENTS  0.1219496D+00 0.8000000D+00 0.8000000D+00 0.8000000D+00
MO    1     MO 0.0        OCC NO =    2.0000000  ORB. ENERGY =   -9.941946
 -0.16423764D-03 -0.29543425D-03 -0.43067591D-03 -0.42178471D-03 -0.16587909D-03
  0.39079834D-04 -0.11205165D-02 -0.36553798D-04 -0.28982353D-04 -0.13866098D-04
  0.43307224D-04  0.34336932D-04  0.16427903D-04  0.44510590D-04  0.35291043D-04
  0.16884380D-04 -0.11792006D-03  0.12834115D-04 -0.39598682D-03  0.17232981D-04
  0.11228018D-04 -0.28460999D-04 -0.63864844D-04 -0.87933995D-05  0.45901036D-04
 -0.18859003D-03 -0.33923985D-03 -0.49453451D-03 -0.48432496D-03 -0.19047486D-03
 -0.49705662D-04  0.93755776D-03  0.19915329D-05  0.15790236D-05  0.75545613D-06
 -0.26597731D-04 -0.21088502D-04 -0.10089424D-04  0.45741804D-04  0.36267233D-04
  0.17351422D-04  0.28049757D-03  0.30237006D-03 -0.13767331D-03 -0.83689243D-05
  0.37853117D-05  0.45836126D-05 -0.16271402D-04  0.22619141D-04 -0.19103705D-04
 -0.50140098D-03 -0.90193100D-03 -0.13148102D-02 -0.12876662D-02 -0.50641216D-03
 -0.20998528D-04 -0.16775924D-02 -0.88040003D-04 -0.69804141D-04 -0.33396567D-04
 -0.58401182D-04 -0.46304455D-04 -0.22153554D-04 -0.23514990D-04 -0.18644294D-04
 -0.89200354D-05 -0.51635651D-03 -0.51119011D-03  0.22618271D-03 -0.30791574D-04
  0.21453327D-04  0.93382473D-05 -0.19387217D-03 -0.32344655D-04  0.68990319D-04
 -0.32086458D-03 -0.57717818D-03 -0.84139446D-03 -0.82402408D-03 -0.32407141D-03
 -0.10749894D-04  0.16538898D-02  0.37841695D-03  0.30003486D-03  0.14354641D-03
  0.33924027D-03  0.26897291D-03  0.12868537D-03  0.88601775D-04  0.70249552D-04
  0.33609666D-04 -0.81046140D-03 -0.43045391D-03 -0.55336972D-03  0.66012763D-05
  0.12782730D-03 -0.13442858D-03  0.34640660D-04 -0.21548509D-03 -0.63075875D-04
  0.46048582D-03  0.82833191D-03  0.12075195D-02  0.11825905D-02  0.46508808D-03
  0.33104183D-03 -0.32822638D-02  0.69528658D-03  0.55127079D-03  0.26374584D-03
  0.55130599D-03  0.43711313D-03  0.20912911D-03  0.31015884D-03  0.24591516D-03
  0.11765380D-03  0.85461533D-04 -0.61698051D-04  0.31443540D-03  0.57251883D-03
  0.11253732D-03 -0.68505615D-03  0.16380138D-02  0.66954213D-03  0.21876706D-03
 -0.91005967D-03 -0.16370351D-02 -0.23864247D-02 -0.23371576D-02 -0.91915513D-03
 -0.15330983D-03  0.16321638D-02  0.61814455D-04  0.49010731D-04  0.23448324D-04
 -0.92014730D-04 -0.72955576D-04 -0.34904316D-04  0.70152824D-04  0.55621961D-04
  0.26611351D-04 -0.15923465D-04 -0.13980666D-03  0.48811832D-03 -0.65667968D-04
  0.32787121D-04  0.32880847D-04 -0.13163192D-03  0.15667657D-03  0.18822179D-03
 -0.57256861D+00 -0.10299489D+01 -0.15014311D+01 -0.14704344D+01 -0.57829107D+00
 -0.15320283D-01  0.97928548D-02 -0.38822671D-03 -0.30781271D-03 -0.14726759D-03
 -0.62442566D-03 -0.49508741D-03 -0.23686588D-03 -0.21774835D-03 -0.17264580D-03
 -0.82599354D-04 -0.17140459D-03  0.80043627D-03 -0.75776639D-03  0.93199999D-03
 -0.21624741D-03 -0.71575258D-03  0.32791111D-04  0.29413470D-04  0.88551676D-03
 -0.91609181D-03 -0.16478859D-02 -0.24022426D-02 -0.23526489D-02 -0.92524755D-03
 -0.13674971D-03 -0.13611189D-02 -0.39773973D-03 -0.31535528D-03 -0.15087620D-03
  0.72108190D-04  0.57172309D-04  0.27353088D-04  0.20922732D-03  0.16588974D-03
  0.79367038D-04 -0.21550778D-03  0.32919911D-03  0.12325359D-03  0.52362834D-03
  0.22419866D-04 -0.54604820D-03 -0.17373681D-02 -0.68061592D-03  0.24270477D-03
  0.57322732D+00  0.10311338D+01  0.15031584D+01  0.14721261D+01  0.57895636D+00
  0.15337261D-01 -0.97992455D-02  0.38800649D-03  0.30763810D-03  0.14718405D-03
 -0.62330962D-03 -0.49420253D-03 -0.23644253D-03 -0.21847785D-03 -0.17322419D-03
 -0.82876076D-04  0.17115739D-03  0.79938351D-03 -0.75929836D-03 -0.93185678D-03
  0.21516229D-03  0.71669449D-03  0.32414105D-04  0.29446054D-04 -0.88264133D-03
  0.91548910D-03  0.16468017D-02  0.24006622D-02  0.23511011D-02  0.92463882D-03
  0.13591575D-03  0.13659101D-02  0.39904748D-03  0.31639216D-03  0.15137228D-03
  0.72725807D-04  0.57661998D-04  0.27587371D-04  0.20900078D-03  0.16571013D-03
  0.79281103D-04  0.21516689D-03  0.32949527D-03  0.12442503D-03 -0.52431714D-03
 -0.22358716D-04  0.54667586D-03 -0.17390660D-02 -0.68141513D-03 -0.24338487D-03
 -0.45866670D-03 -0.82505964D-03 -0.12027492D-02 -0.11779188D-02 -0.46325078D-03
 -0.33110153D-03  0.32846186D-02 -0.69572314D-03 -0.55161693D-03 -0.26391144D-03
  0.55204804D-03  0.43770147D-03  0.20941059D-03  0.30982537D-03  0.24565076D-03
  0.11752730D-03 -0.85942441D-04 -0.61816423D-04  0.31578966D-03 -0.57332337D-03
 -0.11235250D-03  0.68567588D-03  0.16399983D-02  0.66997899D-03 -0.21938598D-03
  0.90955537D-03  0.16361280D-02  0.23851023D-02  0.23358625D-02  0.91864579D-03
  0.15296877D-03 -0.16356665D-02 -0.62739573D-04 -0.49744228D-04 -0.23799253D-04
 -0.91244016D-04 -0.72344501D-04 -0.34611957D-04  0.70337954D-04  0.55768745D-04
  0.26681578D-04  0.16941156D-04 -0.14107407D-03  0.48894797D-03  0.65413821D-04
 -0.32845537D-04 -0.32568284D-04 -0.13143140D-03  0.15692108D-03 -0.18878960D-03
  0.16494544D-03  0.29670745D-03  0.43253195D-03  0.42360244D-03  0.16659397D-03
 -0.39114686D-04  0.11238310D-02  0.36725477D-04  0.29118472D-04  0.13931222D-04
  0.43125207D-04  0.34192616D-04  0.16358857D-04  0.44579162D-04  0.35345411D-04
  0.16910392D-04  0.11893789D-03  0.12399643D-04 -0.39675636D-03 -0.17132835D-04
 -0.11275677D-04  0.28408512D-04 -0.64382665D-04 -0.89159606D-05 -0.45984980D-04
  0.18902701D-03  0.34002589D-03  0.49568038D-03  0.48544718D-03  0.19091621D-03
  0.49842820D-04 -0.93902888D-03 -0.19476536D-05 -0.15442331D-05 -0.73881124D-06
 -0.26589111D-04 -0.21081667D-04 -0.10086154D-04  0.45623053D-04  0.36173079D-04
  0.17306375D-04 -0.28105453D-03  0.30282907D-03 -0.13764886D-03  0.83690924D-05
 -0.37907587D-05 -0.45783338D-05 -0.16262298D-04  0.22570581D-04  0.19099168D-04
  0.50207384D-03  0.90314134D-03  0.13165746D-02  0.12893942D-02  0.50709174D-03
  0.21079902D-04  0.16796506D-02  0.88033332D-04  0.69798852D-04  0.33394036D-04
 -0.58340860D-04 -0.46256627D-04 -0.22130672D-04 -0.23441659D-04 -0.18586152D-04
 -0.88922185D-05  0.51682577D-03 -0.51172138D-03  0.22641041D-03  0.30786571D-04
 -0.21490202D-04 -0.92963683D-05 -0.19400486D-03 -0.32474129D-04 -0.69051949D-04
  0.32196400D-03  0.57915585D-03  0.84427745D-03  0.82684755D-03  0.32518182D-03
  0.10815057D-04 -0.16545542D-02 -0.37866158D-03 -0.30022882D-03 -0.14363921D-03
  0.33929419D-03  0.26901566D-03  0.12870582D-03  0.88613808D-04  0.70259093D-04
  0.33614230D-04  0.81159517D-03 -0.43111357D-03 -0.55347274D-03 -0.64695132D-05
 -0.12794236D-03  0.13441188D-03  0.34398948D-04 -0.21563118D-03  0.62944500D-04
  0.63547305D-03  0.11431027D-02  0.16663837D-02  0.16319816D-02  0.64182419D-03