 Generated by Multiwfn
GAUSSIAN             77 MOL ORBITALS    648 PRIMITIVES       36 NUCLEI
  O    1    (CENTRE  1)  11.04998200 15.94169690 -0.40735185  CHARGE =  8.0
  C    2    (CENTRE  2)   8.61080102 16.77402570 -0.31478699  CHARGE =  6.0
  C    3    (CENTRE  3)   8.26039240 19.42426019 -0.35223301  CHARGE =  6.0
  C    4    (CENTRE  4)   5.82337493 20.45026828 -0.26078796  CHARGE =  6.0
  C    5    (CENTRE  5)   3.67895620 18.85485153 -0.12955979  CHARGE =  6.0
  C    6    (CENTRE  6)   4.00654986 16.23819075 -0.09432983  CHARGE =  6.0
  C    7    (CENTRE  7)   6.46138387 15.12748567 -0.18581092  CHARGE =  6.0
  C    8    (CENTRE  8)   6.77064233 12.39156626 -0.15222767  CHARGE =  6.0
  N    9    (CENTRE  9)   4.86757879 10.81919177 -0.04872000  CHARGE =  7.0
  N   10    (CENTRE 10)   5.63506810  8.31901951 -0.03959279  CHARGE =  7.0
  C   11    (CENTRE 11)   3.74556644  6.72285590  0.01264027  CHARGE =  6.0
  C   12    (CENTRE 12)   4.24082438  4.03317671  0.02727163  CHARGE =  6.0
  N   13    (CENTRE 13)   2.35034527  2.43779887  0.06611415  CHARGE =  7.0
  N   14    (CENTRE 14)   3.11588989 -0.06297308  0.07493036  CHARGE =  7.0
  C   15    (CENTRE 15)   1.20913964 -1.63430850  0.06470787  CHARGE =  6.0
  C   16    (CENTRE 16)   1.51421438 -4.37081109  0.07299557  CHARGE =  6.0
  C   17    (CENTRE 17)   3.96938448 -5.48392912  0.10746639  CHARGE =  6.0
  C   18    (CENTRE 18)   4.29246091 -8.10135396  0.11733816  CHARGE =  6.0
  C   19    (CENTRE 19)   2.14297122 -9.69511846  0.09113549  CHARGE =  6.0
  C   20    (CENTRE 20)  -0.29446826 -8.66673145  0.05610722  CHARGE =  6.0
  C   21    (CENTRE 21)  -0.64025117 -6.01564173  0.04703109  CHARGE =  6.0
  O   22    (CENTRE 22)  -3.08006144 -5.18076010  0.01303747  CHARGE =  8.0
  H   23    (CENTRE 23)  11.09571087 14.09567389 -0.36136855  CHARGE =  1.0
  H   24    (CENTRE 24)   9.94633039 20.63205772 -0.45434048  CHARGE =  1.0
  H   25    (CENTRE 25)   5.58301908 22.51602918 -0.29251254  CHARGE =  1.0
  H   26    (CENTRE 26)   1.77042773 19.67221282 -0.05576025  CHARGE =  1.0
  H   27    (CENTRE 27)   2.38324563 14.94879786  0.00485756  CHARGE =  1.0
  H   28    (CENTRE 28)   8.70176004 11.55125171 -0.22003075  CHARGE =  1.0
  H   29    (CENTRE 29)   1.75414447  7.37404987  0.04347430  CHARGE =  1.0
  H   30    (CENTRE 30)   6.23212498  3.38138963  0.00171823  CHARGE =  1.0
  H   31    (CENTRE 31)  -0.72228351 -0.79219585  0.04822787  CHARGE =  1.0
  H   32    (CENTRE 32)   5.59668893 -4.19586723  0.12641224  CHARGE =  1.0
  H   33    (CENTRE 33)   6.20137620 -8.92068273  0.14550743  CHARGE =  1.0
  H   34    (CENTRE 34)   2.37973697-11.76153973  0.09786052  CHARGE =  1.0
  H   35    (CENTRE 35)  -1.98427702 -9.87324375  0.03503861  CHARGE =  1.0
  H   36    (CENTRE 36)  -3.12175136 -3.33405965  0.01100962  CHARGE =  1.0
CENTRE ASSIGNMENTS    1  1  1  1  1  1  1  1  1  1  1  1  1  1  1  1  1  1  1  1
CENTRE ASSIGNMENTS    1  1  1  1  1  2  2  2  2  2  2  2  2  2  2  2  2  2  2  2
CENTRE ASSIGNMENTS    2  2  2  2  2  2  2  2  2  2  3  3  3  3  3  3  3  3  3  3
CENTRE ASSIGNMENTS    3  3  3  3  3  3  3  3  3  3  3  3  3  3  3  4  4  4  4  4
CENTRE ASSIGNMENTS    4  4  4  4  4  4  4  4  4  4  4  4  4  4  4  4  4  4  4  4
CENTRE ASSIGNMENTS    5  5  5  5  5  5  5  5  5  5  5  5  5  5  5  5  5  5  5  5
CENTRE ASSIGNMENTS    5  5  5  5  5  6  6  6  6  6  6  6  6  6  6  6  6  6  6  6
CENTRE ASSIGNMENTS    6  6  6  6  6  6  6  6  6  6  7  7  7  7  7  7  7  7  7  7
CENTRE ASSIGNMENTS    7  7  7  7  7  7  7  7  7  7  7  7  7  7  7  8  8  8  8  8
CENTRE ASSIGNMENTS    8  8  8  8  8  8  8  8  8  8  8  8  8  8  8  8  8  8  8  8
CENTRE ASSIGNMENTS    9  9  9  9  9  9  9  9  9  9  9  9  9  9  9  9  9  9  9  9
CENTRE ASSIGNMENTS    9  9  9  9  9 10 10 10 10 10 10 10 10 10 10 10 10 10 10 10
CENTRE ASSIGNMENTS   10 10 10 10 10 10 10 10 10 10 11 11 11 11 11 11 11 11 11 11
CENTRE ASSIGNMENTS   11 11 11 11 11 11 11 11 11 11 11 11 11 11 11 12 12 12 12 12
CENTRE ASSIGNMENTS   12 12 12 12 12 12 12 12 12 12 12 12 12 12 12 12 12 12 12 12
CENTRE ASSIGNMENTS   13 13 13 13 13 13 13 13 13 13 13 13 13 13 13 13 13 13 13 13
CENTRE ASSIGNMENTS   13 13 13 13 13 14 14 14 14 14 14 14 14 14 14 14 14 14 14 14
CENTRE ASSIGNMENTS   14 14 14 14 14 14 14 14 14 14 15 15 15 15 15 15 15 15 15 15
CENTRE ASSIGNMENTS   15 15 15 15 15 15 15 15 15 15 15 15 15 15 15 16 16 16 16 16
CENTRE ASSIGNMENTS   16 16 16 16 16 16 16 16 16 16 16 16 16 16 16 16 16 16 16 16
CENTRE ASSIGNMENTS   17 17 17 17 17 17 17 17 17 17 17 17 17 17 17 17 17 17 17 17
CENTRE ASSIGNMENTS   17 17 17 17 17 18 18 18 18 18 18 18 18 18 18 18 18 18 18 18
CENTRE ASSIGNMENTS   18 18 18 18 18 18 18 18 18 18 19 19 19 19 19 19 19 19 19 19
CENTRE ASSIGNMENTS   19 19 19 19 19 19 19 19 19 19 19 19 19 19 19 20 20 20 20 20
CENTRE ASSIGNMENTS   20 20 20 20 20 20 20 20 20 20 20 20 20 20 20 20 20 20 20 20
CENTRE ASSIGNMENTS   21 21 21 21 21 21 21 21 21 21 21 21 21 21 21 21 21 21 21 21
CENTRE ASSIGNMENTS   21 21 21 21 21 22 22 22 22 22 22 22 22 22 22 22 22 22 22 22
CENTRE ASSIGNMENTS   22 22 22 22 22 22 22 22 22 22 23 23 23 23 23 23 23 24 24 24
CENTRE ASSIGNMENTS   24 24 24 24 25 25 25 25 25 25 25 26 26 26 26 26 26 26 27 27
CENTRE ASSIGNMENTS   27 27 27 27 27 28 28 28 28 28 28 28 29 29 29 29 29 29 29 30
CENTRE ASSIGNMENTS   30 30 30 30 30 30 31 31 31 31 31 31 31 32 32 32 32 32 32 32
CENTRE ASSIGNMENTS   33 33 33 33 33 33 33 34 34 34 34 34 34 34 35 35 35 35 35 35
CENTRE ASSIGNMENTS   35 36 36 36 36 36 36 36
TYPE ASSIGNMENTS      1  1  1  1  1  1  1  2  2  2  3  3  3  4  4  4  2  3  4  5
TYPE ASSIGNMENTS      6  7  8  9 10  1  1  1  1  1  1  1  2  2  2  3  3  3  4  4
TYPE ASSIGNMENTS      4  2  3  4  5  6  7  8  9 10  1  1  1  1  1  1  1  2  2  2
TYPE ASSIGNMENTS      3  3  3  4  4  4  2  3  4  5  6  7  8  9 10  1  1  1  1  1
TYPE ASSIGNMENTS      1  1  2  2  2  3  3  3  4  4  4  2  3  4  5  6  7  8  9 10
TYPE ASSIGNMENTS      1  1  1  1  1  1  1  2  2  2  3  3  3  4  4  4  2  3  4  5
TYPE ASSIGNMENTS      6  7  8  9 10  1  1  1  1  1  1  1  2  2  2  3  3  3  4  4
TYPE ASSIGNMENTS      4  2  3  4  5  6  7  8  9 10  1  1  1  1  1  1  1  2  2  2
TYPE ASSIGNMENTS      3  3  3  4  4  4  2  3  4  5  6  7  8  9 10  1  1  1  1  1
TYPE ASSIGNMENTS      1  1  2  2  2  3  3  3  4  4  4  2  3  4  5  6  7  8  9 10
TYPE ASSIGNMENTS      1  1  1  1  1  1  1  2  2  2  3  3  3  4  4  4  2  3  4  5
TYPE ASSIGNMENTS      6  7  8  9 10  1  1  1  1  1  1  1  2  2  2  3  3  3  4  4
TYPE ASSIGNMENTS      4  2  3  4  5  6  7  8  9 10  1  1  1  1  1  1  1  2  2  2
TYPE ASSIGNMENTS      3  3  3  4  4  4  2  3  4  5  6  7  8  9 10  1  1  1  1  1
TYPE ASSIGNMENTS      1  1  2  2  2  3  3  3  4  4  4  2  3  4  5  6  7  8  9 10
TYPE ASSIGNMENTS      1  1  1  1  1  1  1  2  2  2  3  3  3  4  4  4  2  3  4  5
TYPE ASSIGNMENTS      6  7  8  9 10  1  1  1  1  1  1  1  2  2  2  3  3  3  4  4
TYPE ASSIGNMENTS      4  2  3  4  5  6  7  8  9 10  1  1  1  1  1  1  1  2  2  2
TYPE ASSIGNMENTS      3  3  3  4  4  4  2  3  4  5  6  7  8  9 10  1  1  1  1  1
TYPE ASSIGNMENTS      1  1  2  2  2  3  3  3  4  4  4  2  3  4  5  6  7  8  9 10
TYPE ASSIGNMENTS      1  1  1  1  1  1  1  2  2  2  3  3  3  4  4  4  2  3  4  5
TYPE ASSIGNMENTS      6  7  8  9 10  1  1  1  1  1  1  1  2  2  2  3  3  3  4  4
TYPE ASSIGNMENTS      4  2  3  4  5  6  7  8  9 10  1  1  1  1  1  1  1  2  2  2
TYPE ASSIGNMENTS      3  3  3  4  4  4  2  3  4  5  6  7  8  9 10  1  1  1  1  1
TYPE ASSIGNMENTS      1  1  2  2  2  3  3  3  4  4  4  2  3  4  5  6  7  8  9 10
TYPE ASSIGNMENTS      1  1  1  1  1  1  1  2  2  2  3  3  3  4  4  4  2  3  4  5
TYPE ASSIGNMENTS      6  7  8  9 10  1  1  1  1  1  1  1  2  2  2  3  3  3  4  4
TYPE ASSIGNMENTS      4  2  3  4  5  6  7  8  9 10  1  1  1  1  2  3  4  1  1  1
TYPE ASSIGNMENTS      1  2  3  4  1  1  1  1  2  3  4  1  1  1  1  2  3  4  1  1
TYPE ASSIGNMENTS      1  1  2  3  4  1  1  1  1  2  3  4  1  1  1  1  2  3  4  1
TYPE ASSIGNMENTS      1  1  1  2  3  4  1  1  1  1  2  3  4  1  1  1  1  2  3  4
TYPE ASSIGNMENTS      1  1  1  1  2  3  4  1  1  1  1  2  3  4  1  1  1  1  2  3
TYPE ASSIGNMENTS      4  1  1  1  1  2  3  4
EXPONENTS  0.2266177D+04 0.3408701D+03 0.7736314D+02 0.2147964D+02 0.6658943D+01
EXPONENTS  0.8097598D+00 0.2553077D+00 0.1772150D+02 0.3863551D+01 0.1048092D+01
EXPONENTS  0.1772150D+02 0.3863551D+01 0.1048092D+01 0.1772150D+02 0.3863551D+01
EXPONENTS  0.1048092D+01 0.2764154D+00 0.2764154D+00 0.2764154D+00 0.1200000D+01
EXPONENTS  0.1200000D+01 0.1200000D+01 0.1200000D+01 0.1200000D+01 0.1200000D+01
EXPONENTS  0.1238402D+04 0.1862900D+03 0.4225118D+02 0.1167656D+02 0.3593051D+01
EXPONENTS  0.4024515D+00 0.1309018D+00 0.9468097D+01 0.2010355D+01 0.5477100D+00
EXPONENTS  0.9468097D+01 0.2010355D+01 0.5477100D+00 0.9468097D+01 0.2010355D+01
EXPONENTS  0.5477100D+00 0.1526861D+00 0.1526861D+00 0.1526861D+00 0.8000000D+00
EXPONENTS  0.8000000D+00 0.8000000D+00 0.8000000D+00 0.8000000D+00 0.8000000D+00
EXPONENTS  0.1238402D+04 0.1862900D+03 0.4225118D+02 0.1167656D+02 0.3593051D+01
EXPONENTS  0.4024515D+00 0.1309018D+00 0.9468097D+01 0.2010355D+01 0.5477100D+00
EXPONENTS  0.9468097D+01 0.2010355D+01 0.5477100D+00 0.9468097D+01 0.2010355D+01
EXPONENTS  0.5477100D+00 0.1526861D+00 0.1526861D+00 0.1526861D+00 0.8000000D+00
EXPONENTS  0.8000000D+00 0.8000000D+00 0.8000000D+00 0.8000000D+00 0.8000000D+00
EXPONENTS  0.1238402D+04 0.1862900D+03 0.4225118D+02 0.1167656D+02 0.3593051D+01
EXPONENTS  0.4024515D+00 0.1309018D+00 0.9468097D+01 0.2010355D+01 0.5477100D+00
EXPONENTS  0.9468097D+01 0.2010355D+01 0.5477100D+00 0.9468097D+01 0.2010355D+01
EXPONENTS  0.5477100D+00 0.1526861D+00 0.1526861D+00 0.1526861D+00 0.8000000D+00
EXPONENTS  0.8000000D+00 0.8000000D+00 0.8000000D+00 0.8000000D+00 0.8000000D+00
EXPONENTS  0.1238402D+04 0.1862900D+03 0.4225118D+02 0.1167656D+02 0.3593051D+01
EXPONENTS  0.4024515D+00 0.1309018D+00 0.9468097D+01 0.2010355D+01 0.5477100D+00
EXPONENTS  0.9468097D+01 0.2010355D+01 0.5477100D+00 0.9468097D+01 0.2010355D+01
EXPONENTS  0.5477100D+00 0.1526861D+00 0.1526861D+00 0.1526861D+00 0.8000000D+00
EXPONENTS  0.8000000D+00 0.8000000D+00 0.8000000D+00 0.8000000D+00 0.8000000D+00
EXPONENTS  0.1238402D+04 0.1862900D+03 0.4225118D+02 0.1167656D+02 0.3593051D+01
EXPONENTS  0.4024515D+00 0.1309018D+00 0.9468097D+01 0.2010355D+01 0.5477100D+00
EXPONENTS  0.9468097D+01 0.2010355D+01 0.5477100D+00 0.9468097D+01 0.2010355D+01
EXPONENTS  0.5477100D+00 0.1526861D+00 0.1526861D+00 0.1526861D+00 0.8000000D+00
EXPONENTS  0.8000000D+00 0.8000000D+00 0.8000000D+00 0.8000000D+00 0.8000000D+00
EXPONENTS  0.1238402D+04 0.1862900D+03 0.4225118D+02 0.1167656D+02 0.3593051D+01
EXPONENTS  0.4024515D+00 0.1309018D+00 0.9468097D+01 0.2010355D+01 0.5477100D+00
EXPONENTS  0.9468097D+01 0.2010355D+01 0.5477100D+00 0.9468097D+01 0.2010355D+01
EXPONENTS  0.5477100D+00 0.1526861D+00 0.1526861D+00 0.1526861D+00 0.8000000D+00
EXPONENTS  0.8000000D+00 0.8000000D+00 0.8000000D+00 0.8000000D+00 0.8000000D+00
EXPONENTS  0.1238402D+04 0.1862900D+03 0.4225118D+02 0.1167656D+02 0.3593051D+01
EXPONENTS  0.4024515D+00 0.1309018D+00 0.9468097D+01 0.2010355D+01 0.5477100D+00
EXPONENTS  0.9468097D+01 0.2010355D+01 0.5477100D+00 0.9468097D+01 0.2010355D+01
EXPONENTS  0.5477100D+00 0.1526861D+00 0.1526861D+00 0.1526861D+00 0.8000000D+00
EXPONENTS  0.8000000D+00 0.8000000D+00 0.8000000D+00 0.8000000D+00 0.8000000D+00
EXPONENTS  0.1712842D+04 0.2576481D+03 0.5845825D+02 0.1619837D+02 0.5005260D+01
EXPONENTS  0.5873186D+00 0.1876459D+00 0.1357147D+02 0.2925737D+01 0.7992775D+00
EXPONENTS  0.1357147D+02 0.2925737D+01 0.7992775D+00 0.1357147D+02 0.2925737D+01
EXPONENTS  0.7992775D+00 0.2195435D+00 0.2195435D+00 0.2195435D+00 0.1000000D+01
EXPONENTS  0.1000000D+01 0.1000000D+01 0.1000000D+01 0.1000000D+01 0.1000000D+01
EXPONENTS  0.1712842D+04 0.2576481D+03 0.5845825D+02 0.1619837D+02 0.5005260D+01
EXPONENTS  0.5873186D+00 0.1876459D+00 0.1357147D+02 0.2925737D+01 0.7992775D+00
EXPONENTS  0.1357147D+02 0.2925737D+01 0.7992775D+00 0.1357147D+02 0.2925737D+01
EXPONENTS  0.7992775D+00 0.2195435D+00 0.2195435D+00 0.2195435D+00 0.1000000D+01
EXPONENTS  0.1000000D+01 0.1000000D+01 0.1000000D+01 0.1000000D+01 0.1000000D+01
EXPONENTS  0.1238402D+04 0.1862900D+03 0.4225118D+02 0.1167656D+02 0.3593051D+01
EXPONENTS  0.4024515D+00 0.1309018D+00 0.9468097D+01 0.2010355D+01 0.5477100D+00
EXPONENTS  0.9468097D+01 0.2010355D+01 0.5477100D+00 0.9468097D+01 0.2010355D+01
EXPONENTS  0.5477100D+00 0.1526861D+00 0.1526861D+00 0.1526861D+00 0.8000000D+00
EXPONENTS  0.8000000D+00 0.8000000D+00 0.8000000D+00 0.8000000D+00 0.8000000D+00
EXPONENTS  0.1238402D+04 0.1862900D+03 0.4225118D+02 0.1167656D+02 0.3593051D+01
EXPONENTS  0.4024515D+00 0.1309018D+00 0.9468097D+01 0.2010355D+01 0.5477100D+00
EXPONENTS  0.9468097D+01 0.2010355D+01 0.5477100D+00 0.9468097D+01 0.2010355D+01
EXPONENTS  0.5477100D+00 0.1526861D+00 0.1526861D+00 0.1526861D+00 0.8000000D+00
EXPONENTS  0.8000000D+00 0.8000000D+00 0.8000000D+00 0.8000000D+00 0.8000000D+00
EXPONENTS  0.1712842D+04 0.2576481D+03 0.5845825D+02 0.1619837D+02 0.5005260D+01
EXPONENTS  0.5873186D+00 0.1876459D+00 0.1357147D+02 0.2925737D+01 0.7992775D+00
EXPONENTS  0.1357147D+02 0.2925737D+01 0.7992775D+00 0.1357147D+02 0.2925737D+01
EXPONENTS  0.7992775D+00 0.2195435D+00 0.2195435D+00 0.2195435D+00 0.1000000D+01
EXPONENTS  0.1000000D+01 0.1000000D+01 0.1000000D+01 0.1000000D+01 0.1000000D+01
EXPONENTS  0.1712842D+04 0.2576481D+03 0.5845825D+02 0.1619837D+02 0.5005260D+01
EXPONENTS  0.5873186D+00 0.1876459D+00 0.1357147D+02 0.2925737D+01 0.7992775D+00
EXPONENTS  0.1357147D+02 0.2925737D+01 0.7992775D+00 0.1357147D+02 0.2925737D+01
EXPONENTS  0.7992775D+00 0.2195435D+00 0.2195435D+00 0.2195435D+00 0.1000000D+01
EXPONENTS  0.1000000D+01 0.1000000D+01 0.1000000D+01 0.1000000D+01 0.1000000D+01
EXPONENTS  0.1238402D+04 0.1862900D+03 0.4225118D+02 0.1167656D+02 0.3593051D+01
EXPONENTS  0.4024515D+00 0.1309018D+00 0.9468097D+01 0.2010355D+01 0.5477100D+00
EXPONENTS  0.9468097D+01 0.2010355D+01 0.5477100D+00 0.9468097D+01 0.2010355D+01
EXPONENTS  0.5477100D+00 0.1526861D+00 0.1526861D+00 0.1526861D+00 0.8000000D+00
EXPONENTS  0.8000000D+00 0.8000000D+00 0.8000000D+00 0.8000000D+00 0.8000000D+00
EXPONENTS  0.1238402D+04 0.1862900D+03 0.4225118D+02 0.1167656D+02 0.3593051D+01
EXPONENTS  0.4024515D+00 0.1309018D+00 0.9468097D+01 0.2010355D+01 0.5477100D+00
EXPONENTS  0.9468097D+01 0.2010355D+01 0.5477100D+00 0.9468097D+01 0.2010355D+01
EXPONENTS  0.5477100D+00 0.1526861D+00 0.1526861D+00 0.1526861D+00 0.8000000D+00
EXPONENTS  0.8000000D+00 0.8000000D+00 0.8000000D+00 0.8000000D+00 0.8000000D+00
EXPONENTS  0.1238402D+04 0.1862900D+03 0.4225118D+02 0.1167656D+02 0.3593051D+01
EXPONENTS  0.4024515D+00 0.1309018D+00 0.9468097D+01 0.2010355D+01 0.5477100D+00
EXPONENTS  0.9468097D+01 0.2010355D+01 0.5477100D+00 0.9468097D+01 0.2010355D+01
EXPONENTS  0.5477100D+00 0.1526861D+00 0.1526861D+00 0.1526861D+00 0.8000000D+00
EXPONENTS  0.8000000D+00 0.8000000D+00 0.8000000D+00 0.8000000D+00 0.8000000D+00
EXPONENTS  0.1238402D+04 0.1862900D+03 0.4225118D+02 0.1167656D+02 0.3593051D+01
EXPONENTS  0.4024515D+00 0.1309018D+00 0.9468097D+01 0.2010355D+01 0.5477100D+00
EXPONENTS  0.9468097D+01 0.2010355D+01 0.5477100D+00 0.9468097D+01 0.2010355D+01
EXPONENTS  0.5477100D+00 0.1526861D+00 0.1526861D+00 0.1526861D+00 0.8000000D+00
EXPONENTS  0.8000000D+00 0.8000000D+00 0.8000000D+00 0.8000000D+00 0.8000000D+00
EXPONENTS  0.1238402D+04 0.1862900D+03 0.4225118D+02 0.1167656D+02 0.3593051D+01
EXPONENTS  0.4024515D+00 0.1309018D+00 0.9468097D+01 0.2010355D+01 0.5477100D+00
EXPONENTS  0.9468097D+01 0.2010355D+01 0.5477100D+00 0.9468097D+01 0.2010355D+01
EXPONENTS  0.5477100D+00 0.1526861D+00 0.1526861D+00 0.1526861D+00 0.8000000D+00
EXPONENTS  0.8000000D+00 0.8000000D+00 0.8000000D+00 0.8000000D+00 0.8000000D+00
EXPONENTS  0.1238402D+04 0.1862900D+03 0.4225118D+02 0.1167656D+02 0.3593051D+01
EXPONENTS  0.4024515D+00 0.1309018D+00 0.9468097D+01 0.2010355D+01 0.5477100D+00
EXPONENTS  0.9468097D+01 0.2010355D+01 0.5477100D+00 0.9468097D+01 0.2010355D+01
EXPONENTS  0.5477100D+00 0.1526861D+00 0.1526861D+00 0.1526861D+00 0.8000000D+00
EXPONENTS  0.8000000D+00 0.8000000D+00 0.8000000D+00 0.8000000D+00 0.8000000D+00
EXPONENTS  0.1238402D+04 0.1862900D+03 0.4225118D+02 0.1167656D+02 0.3593051D+01
EXPONENTS  0.4024515D+00 0.1309018D+00 0.9468097D+01 0.2010355D+01 0.5477100D+00
EXPONENTS  0.9468097D+01 0.2010355D+01 0.5477100D+00 0.9468097D+01 0.2010355D+01
EXPONENTS  0.5477100D+00 0.1526861D+00 0.1526861D+00 0.1526861D+00 0.8000000D+00
EXPONENTS  0.8000000D+00 0.8000000D+00 0.8000000D+00 0.8000000D+00 0.8000000D+00
EXPONENTS  0.2266177D+04 0.3408701D+03 0.7736314D+02 0.2147964D+02 0.6658943D+01
EXPONENTS  0.8097598D+00 0.2553077D+00 0.1772150D+02 0.3863551D+01 0.1048092D+01
EXPONENTS  0.1772150D+02 0.3863551D+01 0.1048092D+01 0.1772150D+02 0.3863551D+01
EXPONENTS  0.1048092D+01 0.2764154D+00 0.2764154D+00 0.2764154D+00 0.1200000D+01
EXPONENTS  0.1200000D+01 0.1200000D+01 0.1200000D+01 0.1200000D+01 0.1200000D+01
EXPONENTS  0.1301070D+02 0.1962257D+01 0.4445380D+00 0.1219496D+00 0.8000000D+00
EXPONENTS  0.8000000D+00 0.8000000D+00 0.1301070D+02 0.1962257D+01 0.4445380D+00
EXPONENTS  0.1219496D+00 0.8000000D+00 0.8000000D+00 0.8000000D+00 0.1301070D+02
EXPONENTS  0.1962257D+01 0.4445380D+00 0.1219496D+00 0.8000000D+00 0.8000000D+00
EXPONENTS  0.8000000D+00 0.1301070D+02 0.1962257D+01 0.4445380D+00 0.1219496D+00
EXPONENTS  0.8000000D+00 0.8000000D+00 0.8000000D+00 0.1301070D+02 0.1962257D+01
EXPONENTS  0.4445380D+00 0.1219496D+00 0.8000000D+00 0.8000000D+00 0.8000000D+00
EXPONENTS  0.1301070D+02 0.1962257D+01 0.4445380D+00 0.1219496D+00 0.8000000D+00
EXPONENTS  0.8000000D+00 0.8000000D+00 0.1301070D+02 0.1962257D+01 0.4445380D+00
EXPONENTS  0.1219496D+00 0.8000000D+00 0.8000000D+00 0.8000000D+00 0.1301070D+02
EXPONENTS  0.1962257D+01 0.4445380D+00 0.1219496D+00 0.8000000D+00 0.8000000D+00
EXPONENTS  0.8000000D+00 0.1301070D+02 0.1962257D+01 0.4445380D+00 0.1219496D+00
EXPONENTS  0.8000000D+00 0.8000000D+00 0.8000000D+00 0.1301070D+02 0.1962257D+01
EXPONENTS  0.4445380D+00 0.1219496D+00 0.8000000D+00 0.8000000D+00 0.8000000D+00
EXPONENTS  0.1301070D+02 0.1962257D+01 0.4445380D+00 0.1219496D+00 0.8000000D+00
EXPONENTS  0.8000000D+00 0.8000000D+00 0.1301070D+02 0.1962257D+01 0.4445380D+00
EXPONENTS  0.1219496D+00 0.8000000D+00 0.8000000D+00 0.8000000D+00 0.1301070D+02
EXPONENTS  0.1962257D+01 0.4445380D+00 0.1219496D+00 0.8000000D+00 0.8000000D+00
EXPONENTS  0.8000000D+00 0.1301070D+02 0.1962257D+01 0.4445380D+00 0.1219496D+00
EXPONENTS  0.8000000D+00 0.8000000D+00 0.8000000D+00
MO    1     MO 0.0        OCC NO =    2.0000000  ORB. ENERGY =  -18.828955
 -0.28090803D-01 -0.50652406D-01 -0.74546605D-01 -0.74146608D-01 -0.29399990D-01
 -0.62213719D-03  0.22980040D-03  0.15703705D-03  0.12450181D-03  0.54224400D-04
  0.94976785D-04  0.75299309D-04  0.32795185D-04 -0.97324589D-05 -0.77160691D-05
 -0.33605874D-05 -0.60985377D-04  0.26072913D-04  0.21728801D-05  0.33765256D-04
 -0.53974620D-04  0.20209364D-04  0.79859338D-06 -0.12786201D-05  0.38448699D-05
  0.69334326D-06  0.12472009D-05  0.18181352D-05  0.17806002D-05  0.70027278D-06
 -0.26708161D-04  0.67436467D-04  0.12516385D-05  0.99238467D-06  0.47478904D-06
 -0.20929811D-05 -0.16594587D-05 -0.79393891D-06 -0.43632477D-07 -0.34594814D-07
 -0.16551282D-07 -0.11035218D-03  0.14005677D-04  0.47221454D-05  0.19093974D-04
 -0.12149822D-04 -0.69441515D-05 -0.56483293D-05 -0.22897035D-05  0.44286361D-06
  0.86313896D-07  0.15526331D-06  0.22633858D-06  0.22166588D-06  0.87176548D-07
 -0.17782103D-06 -0.52025733D-04 -0.10008050D-05 -0.79350667D-06 -0.37963935D-06
 -0.24786150D-05 -0.19652157D-05 -0.94022296D-06  0.11543657D-06  0.91526017D-07
  0.43789017D-07  0.38286188D-04  0.13420630D-04 -0.20259728D-05 -0.34364943D-05
  0.63846133D-06  0.27980329D-05 -0.27273089D-04  0.11211110D-05  0.13235054D-05
 -0.92589972D-06 -0.16655286D-05 -0.24279617D-05 -0.23778370D-05 -0.93515349D-06
  0.74165129D-05  0.38655472D-04  0.78435875D-05  0.62189331D-05  0.29753394D-05
 -0.49017447D-05 -0.38864387D-05 -0.18593984D-05 -0.27240063D-06 -0.21597787D-06
 -0.10333082D-06  0.69790281D-05 -0.63138060D-05 -0.19402194D-06 -0.30784751D-05
  0.56077759D-07  0.30223974D-05 -0.92881207D-06  0.57555408D-06  0.16553126D-06
 -0.21040213D-06 -0.37847592D-06 -0.55173178D-06 -0.54034141D-06 -0.21250496D-06
  0.13885695D-06 -0.31637170D-04  0.28865029D-05  0.22886171D-05  0.10949487D-05
  0.88959049D-06  0.70532823D-06  0.33745192D-06 -0.15187329D-06 -0.12041554D-06
 -0.57610702D-07 -0.48244140D-05  0.80997881D-05  0.60584674D-07  0.44809517D-06
 -0.31689105D-06 -0.13120412D-06 -0.19346977D-05 -0.13230463D-07  0.11197856D-06
 -0.72284953D-06 -0.13002775D-05 -0.18955087D-05 -0.18563764D-05 -0.73007395D-06
  0.59101062D-05  0.38804667D-04  0.97028888D-05  0.76931144D-05  0.36806356D-05
 -0.10430152D-06 -0.82697388D-07 -0.39565115D-07 -0.43958663D-06 -0.34853437D-06
 -0.16675016D-06  0.11319053D-04  0.20571205D-04 -0.88991533D-06  0.42656538D-05
 -0.66272846D-05  0.23616307D-05  0.11708234D-04 -0.35198665D-06 -0.19530656D-06
  0.11506174D-05  0.20697557D-05  0.30172329D-05  0.29549428D-05  0.11621171D-05
 -0.69044639D-05 -0.51837791D-04  0.52488315D-05  0.41616329D-05  0.19910603D-05
  0.25294538D-04  0.20055241D-04  0.95950782D-05 -0.63434090D-06 -0.50294889D-06
 -0.24062707D-06 -0.16731379D-04 -0.91264269D-04  0.23937945D-05  0.79398251D-05
 -0.91905146D-05  0.12506895D-05 -0.12145119D-04 -0.34110595D-06  0.11048054D-05
 -0.23919094D-06 -0.43026186D-06 -0.62722390D-06 -0.61427501D-06 -0.24158150D-06
  0.18616533D-06 -0.51424374D-04 -0.19226895D-04 -0.15244398D-04 -0.72934150D-05
 -0.18442316D-04 -0.14622330D-04 -0.69957974D-05  0.10933533D-05  0.86688531D-06
  0.41474607D-06  0.81680509D-05 -0.30042520D-04  0.22118730D-06  0.40544229D-05
 -0.86793243D-06 -0.31864905D-05  0.10679754D-04 -0.97738550D-06 -0.79644570D-06
  0.36487800D-05  0.65724232D-05  0.96324885D-05  0.95147164D-05  0.37558437D-05
 -0.20784944D-04  0.30042434D-04  0.37046491D-04  0.29614820D-04  0.13758168D-04
  0.42053138D-04  0.33617114D-04  0.15617516D-04 -0.16184301D-05 -0.12937666D-05
 -0.60104567D-06 -0.17045081D-04 -0.32062246D-04  0.91034667D-06 -0.81446626D-05
  0.13703523D-04 -0.55588606D-05 -0.20803439D-04  0.10666065D-05  0.58431015D-06
  0.43489178D-05  0.78335576D-05  0.11480796D-04  0.11340426D-04  0.44765252D-05
 -0.29190509D-04  0.85353034D-04  0.27948153D-04  0.22341644D-04  0.10379266D-04
  0.18678628D-04  0.14931622D-04  0.69367895D-05 -0.10937249D-05 -0.87431937D-06
 -0.40618289D-06 -0.37907308D-04 -0.43293101D-04  0.14645401D-05  0.15780965D-04
 -0.98643699D-05 -0.59165953D-05  0.39665914D-04 -0.14656104D-05 -0.68487005D-06
  0.40881696D-05  0.73538884D-05  0.10720296D-04  0.10498978D-04  0.41290282D-05
 -0.42749515D-04  0.86107993D-04 -0.80132489D-07 -0.63534522D-07 -0.30396977D-07
  0.23685189D-04  0.18779239D-04  0.89845976D-05  0.20447118D-06  0.16211874D-06
  0.77562869D-07 -0.43579339D-04 -0.11190518D-03  0.11836948D-05 -0.32033423D-05
  0.23009984D-04 -0.19806642D-04 -0.12450977D-04 -0.79575505D-06  0.66164469D-06
 -0.17524418D-04 -0.31523305D-04 -0.45953806D-04 -0.45005101D-04 -0.17699564D-04
  0.10678450D-03 -0.80199804D-04 -0.14621405D-03 -0.11592851D-03 -0.55463962D-04
 -0.29146701D-04 -0.23109499D-04 -0.11056335D-04  0.11217094D-05  0.88936799D-06
  0.42550251D-06 -0.15315323D-06 -0.82242085D-04  0.21342361D-05  0.62267130D-04
 -0.41473227D-04 -0.20793903D-04  0.15304430D-04 -0.49872055D-05 -0.17871003D-05
  0.16348494D-04  0.29447987D-04  0.43158723D-04  0.42631041D-04  0.16828197D-04
 -0.13507245D-03  0.34004348D-03  0.22542606D-03  0.18020471D-03  0.83717773D-04
  0.23498627D-03  0.18784710D-03  0.87268200D-04  0.32721352D-05  0.26157320D-05
  0.12151916D-05 -0.93454206D-04 -0.36965772D-03  0.13652728D-06 -0.92019226D-04
  0.20635914D-03 -0.11433992D-03 -0.13208599D-03  0.41379566D-05  0.16030998D-05
 -0.18035797D-04 -0.32487268D-04 -0.47613067D-04 -0.47030924D-04 -0.18565010D-04
  0.19187652D-03 -0.85395626D-03  0.40150032D-04  0.32095778D-04  0.14910748D-04
  0.14171173D-03  0.11328380D-03  0.52628300D-04  0.16620606D-05  0.13286447D-05
  0.61724901D-06  0.14162167D-03 -0.83850275D-04  0.23484412D-06  0.11545766D-03
 -0.13484568D-03  0.19388022D-04  0.52502267D-04  0.27912397D-05  0.13959448D-05
 -0.90261673D-04 -0.16236466D-03 -0.23669073D-03 -0.23180431D-03 -0.91163780D-04
  0.53715478D-03  0.21880795D-02 -0.57756776D-04 -0.45793525D-04 -0.21909109D-04
 -0.29762784D-03 -0.23597972D-03 -0.11290036D-03 -0.69200128D-06 -0.54866598D-06
 -0.26249961D-06  0.44059038D-03 -0.76363594D-03  0.63405630D-05  0.34090624D-04
  0.69984323D-05 -0.41089056D-04 -0.10020766D-03  0.12558908D-06 -0.34420271D-05
 -0.43580436D-04 -0.78393436D-04 -0.11427979D-03 -0.11192051D-03 -0.44015994D-04
  0.27882522D-03  0.17553956D-02  0.71234193D-04  0.56479344D-04  0.27021552D-04
  0.79501538D-03  0.63034261D-03  0.30157637D-03 -0.85941488D-06 -0.68140294D-06
 -0.32600528D-06 -0.22404683D-03 -0.31090736D-02  0.25661424D-05 -0.39369360D-03
  0.45133308D-03 -0.57639475D-04  0.35983249D-03 -0.97705696D-05  0.29968658D-05
  0.37043765D-04  0.66635131D-04  0.97138858D-04  0.95133450D-04  0.37413994D-04
 -0.29338418D-03 -0.14810333D-02  0.45039272D-03  0.35710218D-03  0.17084927D-03
 -0.25450854D-04 -0.20179179D-04 -0.96543743D-05  0.65078503D-05  0.51598692D-05
  0.24686489D-05  0.39419268D-03  0.53907060D-03  0.39253178D-05 -0.10888637D-03
  0.22500638D-03 -0.11612000D-03 -0.39510999D-03  0.11758675D-05 -0.62789582D-05
  0.14257801D-04  0.25647243D-04  0.37387844D-04  0.36615982D-04  0.14400299D-04
 -0.54987798D-04  0.10830960D-02  0.14335561D-03  0.11366214D-03  0.54379656D-04
 -0.21847753D-05 -0.17322394D-05 -0.82875954D-06  0.19042227D-05  0.15097981D-05
  0.72233640D-06 -0.18816147D-03  0.19714945D-03 -0.29623325D-05 -0.20637512D-04
  0.43282240D-04 -0.22644728D-04  0.89225102D-04  0.36400171D-07  0.11122116D-05
  0.35950113D-04  0.64667845D-04  0.94271004D-04  0.92324802D-04  0.36309411D-04
 -0.30360622D-03 -0.13021441D-02  0.32694253D-03  0.25922242D-03  0.12402042D-03
 -0.21513979D-03 -0.17057756D-03 -0.81609839D-04  0.48916575D-05  0.38784409D-05
  0.18555720D-05  0.10429403D-03 -0.20771779D-03  0.18774617D-05  0.15307537D-03
 -0.44506517D-05 -0.14862472D-03  0.42576917D-04  0.80317939D-05  0.16834983D-06
 -0.10318026D-04 -0.18560289D-04 -0.27056678D-04 -0.26498100D-04 -0.10421148D-04
  0.40447398D-04  0.20411226D-02  0.11241309D-05  0.89128790D-06  0.42642106D-06
 -0.13627740D-03 -0.10805005D-03 -0.51694652D-04  0.18339431D-06  0.14540756D-06
  0.69567698D-07  0.13247860D-02  0.72280412D-03  0.16622391D-04  0.16428481D-03
 -0.17533093D-04 -0.14675172D-03  0.11286021D-02  0.66096021D-05  0.14486213D-04
 -0.27416525D-04 -0.49317441D-04 -0.71893608D-04 -0.70409382D-04 -0.27690535D-04
  0.11055204D-02 -0.20140541D-02  0.10244707D-03  0.81227048D-04  0.38861656D-04
 -0.17026163D-03 -0.13499508D-03 -0.64586026D-04  0.13949760D-05  0.11060325D-05
  0.52916182D-06 -0.41505952D-02  0.10283946D-02 -0.57199089D-04 -0.79642491D-03
  0.55223935D-03  0.24418556D-03  0.42278809D-03 -0.28750226D-04  0.46740884D-05
  0.12463913D+01  0.22474515D+01  0.33076391D+01  0.32898912D+01  0.13044800D+01
  0.27477996D-01 -0.98982404D-02  0.68851589D-02  0.54586782D-02  0.23774237D-02
  0.43915120D-02  0.34816700D-02  0.15163753D-02  0.90021230D-04  0.71370456D-04
  0.31084047D-04 -0.26148692D-02  0.94181957D-03 -0.36443596D-04 -0.14825749D-02
  0.23789802D-02 -0.89640534D-03 -0.20065284D-03 -0.15683840D-04 -0.74492694D-05
  0.52578026D-05  0.89195443D-05  0.10154432D-04 -0.37548251D-05  0.11581788D-04
  0.70859238D-04 -0.23625819D-05 -0.35845469D-05 -0.60809671D-05 -0.69228611D-05
 -0.83199795D-05 -0.16951511D-05 -0.86686936D-05  0.25088885D-06 -0.51129965D-06
 -0.86738896D-06 -0.98747669D-06 -0.25214521D-05 -0.19263819D-06  0.22842644D-05
 -0.40603882D-07  0.24003821D-07  0.40721032D-07  0.46358752D-07  0.49175168D-06
 -0.57640364D-06 -0.86110965D-06  0.47076777D-07  0.14279614D-05  0.24224503D-05
  0.27578322D-05  0.39717546D-05 -0.13916897D-05 -0.38487907D-05  0.11907776D-06
 -0.25326697D-05 -0.42965211D-05 -0.48913632D-05  0.33076294D-05  0.25743950D-05
  0.11336812D-04 -0.34166252D-06 -0.71967032D-05 -0.12208772D-04 -0.13899044D-04
 -0.13464778D-04  0.18477986D-04  0.61680764D-04 -0.35673503D-06 -0.98266297D-05
 -0.16670283D-04 -0.18978240D-04  0.10383729D-04  0.24351069D-04  0.18202762D-04
 -0.20003489D-05  0.77558682D-04  0.13157362D-03  0.14978964D-03 -0.21655289D-03
  0.52159286D-04  0.46982033D-03  0.20726745D-06 -0.26076891D-04 -0.44237869D-04
 -0.50362486D-04 -0.69060038D-04 -0.67860850D-04 -0.14964063D-03 -0.43560901D-06
 -0.31186660D-05 -0.52906284D-05 -0.60231020D-05 -0.13801755D-04 -0.29015715D-04
 -0.91175817D-05 -0.37794503D-06  0.22061765D-04  0.37426451D-04  0.42608045D-04
  0.10689481D-03  0.43475134D-04  0.10810758D-03  0.35962098D-06  0.13203443D-03
  0.22398843D-03  0.25499903D-03  0.32873351D-03 -0.15548798D-04 -0.40578778D-03
  0.61945131D-06 -0.20442874D-03 -0.34680100D-03 -0.39481469D-03  0.21848121D-03
  0.54857612D-03  0.31309118D-02  0.52163715D-05
MO    2     MO 0.0        OCC NO =    2.0000000  ORB. ENERGY =  -18.828944
  0.12463914D+01  0.22474516D+01  0.33076393D+01  0.32898913D+01  0.13044801D+01
  0.27477665D-01 -0.98975752D-02 -0.68683642D-02 -0.54453631D-02 -0.23716245D-02
 -0.43965893D-02 -0.34856954D-02 -0.15181284D-02  0.43370998D-03  0.34385310D-03
  0.14975869D-03  0.26142125D-02 -0.93905102D-03 -0.97666562D-04 -0.14811505D-02
  0.23769524D-02 -0.89580190D-03 -0.21623176D-03  0.59896150D-04 -0.16135421D-03
 -0.27408560D-04 -0.49303113D-04 -0.71872721D-04 -0.70388926D-04 -0.27682491D-04
  0.11053743D-02 -0.20134033D-02 -0.10267240D-03 -0.81405710D-04 -0.38947134D-04
  0.17027459D-03  0.13500535D-03  0.64590942D-04  0.28334929D-05  0.22465871D-05
  0.10748402D-05  0.41480158D-02 -0.10243614D-02 -0.16701547D-03 -0.79507614D-03