 ***
GAUSSIAN             47 MOL ORBITALS    420 PRIMITIVES       24 NUCLEI
  C    1    (CENTRE  1)  -2.33555145 -1.38050081 -0.00000048  CHARGE =  6.0
  C    2    (CENTRE  2)  -4.72455732 -2.68038502  0.00000114  CHARGE =  6.0
  C    3    (CENTRE  3)  -6.98157895 -1.35537231  0.00000011  CHARGE =  6.0
  C    4    (CENTRE  4)  -6.98157890  1.35537245  0.00000034  CHARGE =  6.0
  C    5    (CENTRE  5)  -4.72455710  2.68038494  0.00000087  CHARGE =  6.0
  C    6    (CENTRE  6)  -2.33555131  1.38050081 -0.00000068  CHARGE =  6.0
  C    7    (CENTRE  7)  -0.00000005  2.67593971 -0.00000132  CHARGE =  6.0
  C    8    (CENTRE  8)   2.33555133  1.38050078 -0.00000063  CHARGE =  6.0
  C    9    (CENTRE  9)   2.33555150 -1.38050078 -0.00000044  CHARGE =  6.0
  C   10    (CENTRE 10)   0.00000000 -2.67593981 -0.00000114  CHARGE =  6.0
  C   11    (CENTRE 11)   4.72455707  2.68038491  0.00000111  CHARGE =  6.0
  C   12    (CENTRE 12)   6.98157885  1.35537244  0.00000057  CHARGE =  6.0
  C   13    (CENTRE 13)   6.98157900 -1.35537224 -0.00000022  CHARGE =  6.0
  C   14    (CENTRE 14)   4.72455732 -2.68038500  0.00000112  CHARGE =  6.0
  H   15    (CENTRE 15)  -4.72368468 -4.76064128  0.00000065  CHARGE =  1.0
  H   16    (CENTRE 16)  -8.79163341 -2.37844916 -0.00000094  CHARGE =  1.0
  H   17    (CENTRE 17)  -8.79163352  2.37844943 -0.00000077  CHARGE =  1.0
  H   18    (CENTRE 18)  -4.72368432  4.76064089  0.00000058  CHARGE =  1.0
  H   19    (CENTRE 19)  -0.00000002  4.75724445 -0.00000012  CHARGE =  1.0
  H   20    (CENTRE 20)   0.00000009 -4.75724473 -0.00000056  CHARGE =  1.0
  H   21    (CENTRE 21)   4.72368439  4.76064081  0.00000038  CHARGE =  1.0
  H   22    (CENTRE 22)   8.79163336  2.37844948 -0.00000062  CHARGE =  1.0
  H   23    (CENTRE 23)   8.79163350 -2.37844911 -0.00000146  CHARGE =  1.0
  H   24    (CENTRE 24)   4.72368470 -4.76064122  0.00000083  CHARGE =  1.0
CENTRE ASSIGNMENTS    1  1  1  1  1  1  1  1  1  1  1  1  1  1  1  1  1  1  1  1
CENTRE ASSIGNMENTS    1  1  1  1  1  2  2  2  2  2  2  2  2  2  2  2  2  2  2  2
CENTRE ASSIGNMENTS    2  2  2  2  2  2  2  2  2  2  3  3  3  3  3  3  3  3  3  3
CENTRE ASSIGNMENTS    3  3  3  3  3  3  3  3  3  3  3  3  3  3  3  4  4  4  4  4
CENTRE ASSIGNMENTS    4  4  4  4  4  4  4  4  4  4  4  4  4  4  4  4  4  4  4  4
CENTRE ASSIGNMENTS    5  5  5  5  5  5  5  5  5  5  5  5  5  5  5  5  5  5  5  5
CENTRE ASSIGNMENTS    5  5  5  5  5  6  6  6  6  6  6  6  6  6  6  6  6  6  6  6
CENTRE ASSIGNMENTS    6  6  6  6  6  6  6  6  6  6  7  7  7  7  7  7  7  7  7  7
CENTRE ASSIGNMENTS    7  7  7  7  7  7  7  7  7  7  7  7  7  7  7  8  8  8  8  8
CENTRE ASSIGNMENTS    8  8  8  8  8  8  8  8  8  8  8  8  8  8  8  8  8  8  8  8
CENTRE ASSIGNMENTS    9  9  9  9  9  9  9  9  9  9  9  9  9  9  9  9  9  9  9  9
CENTRE ASSIGNMENTS    9  9  9  9  9 10 10 10 10 10 10 10 10 10 10 10 10 10 10 10
CENTRE ASSIGNMENTS   10 10 10 10 10 10 10 10 10 10 11 11 11 11 11 11 11 11 11 11
CENTRE ASSIGNMENTS   11 11 11 11 11 11 11 11 11 11 11 11 11 11 11 12 12 12 12 12
CENTRE ASSIGNMENTS   12 12 12 12 12 12 12 12 12 12 12 12 12 12 12 12 12 12 12 12
CENTRE ASSIGNMENTS   13 13 13 13 13 13 13 13 13 13 13 13 13 13 13 13 13 13 13 13
CENTRE ASSIGNMENTS   13 13 13 13 13 14 14 14 14 14 14 14 14 14 14 14 14 14 14 14
CENTRE ASSIGNMENTS   14 14 14 14 14 14 14 14 14 14 15 15 15 15 15 15 15 16 16 16
CENTRE ASSIGNMENTS   16 16 16 16 17 17 17 17 17 17 17 18 18 18 18 18 18 18 19 19
CENTRE ASSIGNMENTS   19 19 19 19 19 20 20 20 20 20 20 20 21 21 21 21 21 21 21 22
CENTRE ASSIGNMENTS   22 22 22 22 22 22 23 23 23 23 23 23 23 24 24 24 24 24 24 24
TYPE ASSIGNMENTS      1  1  1  1  1  1  1  2  2  2  3  3  3  4  4  4  2  3  4  5
TYPE ASSIGNMENTS      6  7  8  9 10  1  1  1  1  1  1  1  2  2  2  3  3  3  4  4
TYPE ASSIGNMENTS      4  2  3  4  5  6  7  8  9 10  1  1  1  1  1  1  1  2  2  2
TYPE ASSIGNMENTS      3  3  3  4  4  4  2  3  4  5  6  7  8  9 10  1  1  1  1  1
TYPE ASSIGNMENTS      1  1  2  2  2  3  3  3  4  4  4  2  3  4  5  6  7  8  9 10
TYPE ASSIGNMENTS      1  1  1  1  1  1  1  2  2  2  3  3  3  4  4  4  2  3  4  5
TYPE ASSIGNMENTS      6  7  8  9 10  1  1  1  1  1  1  1  2  2  2  3  3  3  4  4
TYPE ASSIGNMENTS      4  2  3  4  5  6  7  8  9 10  1  1  1  1  1  1  1  2  2  2
TYPE ASSIGNMENTS      3  3  3  4  4  4  2  3  4  5  6  7  8  9 10  1  1  1  1  1
TYPE ASSIGNMENTS      1  1  2  2  2  3  3  3  4  4  4  2  3  4  5  6  7  8  9 10
TYPE ASSIGNMENTS      1  1  1  1  1  1  1  2  2  2  3  3  3  4  4  4  2  3  4  5
TYPE ASSIGNMENTS      6  7  8  9 10  1  1  1  1  1  1  1  2  2  2  3  3  3  4  4
TYPE ASSIGNMENTS      4  2  3  4  5  6  7  8  9 10  1  1  1  1  1  1  1  2  2  2
TYPE ASSIGNMENTS      3  3  3  4  4  4  2  3  4  5  6  7  8  9 10  1  1  1  1  1
TYPE ASSIGNMENTS      1  1  2  2  2  3  3  3  4  4  4  2  3  4  5  6  7  8  9 10
TYPE ASSIGNMENTS      1  1  1  1  1  1  1  2  2  2  3  3  3  4  4  4  2  3  4  5
TYPE ASSIGNMENTS      6  7  8  9 10  1  1  1  1  1  1  1  2  2  2  3  3  3  4  4
TYPE ASSIGNMENTS      4  2  3  4  5  6  7  8  9 10  1  1  1  1  2  3  4  1  1  1
TYPE ASSIGNMENTS      1  2  3  4  1  1  1  1  2  3  4  1  1  1  1  2  3  4  1  1
TYPE ASSIGNMENTS      1  1  2  3  4  1  1  1  1  2  3  4  1  1  1  1  2  3  4  1
TYPE ASSIGNMENTS      1  1  1  2  3  4  1  1  1  1  2  3  4  1  1  1  1  2  3  4
EXPONENTS  0.1238402D+04 0.1862900D+03 0.4225118D+02 0.1167656D+02 0.3593051D+01
EXPONENTS  0.4024515D+00 0.1309018D+00 0.9468097D+01 0.2010355D+01 0.5477100D+00
EXPONENTS  0.9468097D+01 0.2010355D+01 0.5477100D+00 0.9468097D+01 0.2010355D+01
EXPONENTS  0.5477100D+00 0.1526861D+00 0.1526861D+00 0.1526861D+00 0.8000000D+00
EXPONENTS  0.8000000D+00 0.8000000D+00 0.8000000D+00 0.8000000D+00 0.8000000D+00
EXPONENTS  0.1238402D+04 0.1862900D+03 0.4225118D+02 0.1167656D+02 0.3593051D+01
EXPONENTS  0.4024515D+00 0.1309018D+00 0.9468097D+01 0.2010355D+01 0.5477100D+00
EXPONENTS  0.9468097D+01 0.2010355D+01 0.5477100D+00 0.9468097D+01 0.2010355D+01
EXPONENTS  0.5477100D+00 0.1526861D+00 0.1526861D+00 0.1526861D+00 0.8000000D+00
EXPONENTS  0.8000000D+00 0.8000000D+00 0.8000000D+00 0.8000000D+00 0.8000000D+00
EXPONENTS  0.1238402D+04 0.1862900D+03 0.4225118D+02 0.1167656D+02 0.3593051D+01
EXPONENTS  0.4024515D+00 0.1309018D+00 0.9468097D+01 0.2010355D+01 0.5477100D+00
EXPONENTS  0.9468097D+01 0.2010355D+01 0.5477100D+00 0.9468097D+01 0.2010355D+01
EXPONENTS  0.5477100D+00 0.1526861D+00 0.1526861D+00 0.1526861D+00 0.8000000D+00
EXPONENTS  0.8000000D+00 0.8000000D+00 0.8000000D+00 0.8000000D+00 0.8000000D+00
EXPONENTS  0.1238402D+04 0.1862900D+03 0.4225118D+02 0.1167656D+02 0.3593051D+01
EXPONENTS  0.4024515D+00 0.1309018D+00 0.9468097D+01 0.2010355D+01 0.5477100D+00
EXPONENTS  0.9468097D+01 0.2010355D+01 0.5477100D+00 0.9468097D+01 0.2010355D+01
EXPONENTS  0.5477100D+00 0.1526861D+00 0.1526861D+00 0.1526861D+00 0.8000000D+00
EXPONENTS  0.8000000D+00 0.8000000D+00 0.8000000D+00 0.8000000D+00 0.8000000D+00
EXPONENTS  0.1238402D+04 0.1862900D+03 0.4225118D+02 0.1167656D+02 0.3593051D+01
EXPONENTS  0.4024515D+00 0.1309018D+00 0.9468097D+01 0.2010355D+01 0.5477100D+00
EXPONENTS  0.9468097D+01 0.2010355D+01 0.5477100D+00 0.9468097D+01 0.2010355D+01
EXPONENTS  0.5477100D+00 0.1526861D+00 0.1526861D+00 0.1526861D+00 0.8000000D+00
EXPONENTS  0.8000000D+00 0.8000000D+00 0.8000000D+00 0.8000000D+00 0.8000000D+00
EXPONENTS  0.1238402D+04 0.1862900D+03 0.4225118D+02 0.1167656D+02 0.3593051D+01
EXPONENTS  0.4024515D+00 0.1309018D+00 0.9468097D+01 0.2010355D+01 0.5477100D+00
EXPONENTS  0.9468097D+01 0.2010355D+01 0.5477100D+00 0.9468097D+01 0.2010355D+01
EXPONENTS  0.5477100D+00 0.1526861D+00 0.1526861D+00 0.1526861D+00 0.8000000D+00
EXPONENTS  0.8000000D+00 0.8000000D+00 0.8000000D+00 0.8000000D+00 0.8000000D+00
EXPONENTS  0.1238402D+04 0.1862900D+03 0.4225118D+02 0.1167656D+02 0.3593051D+01
EXPONENTS  0.4024515D+00 0.1309018D+00 0.9468097D+01 0.2010355D+01 0.5477100D+00
EXPONENTS  0.9468097D+01 0.2010355D+01 0.5477100D+00 0.9468097D+01 0.2010355D+01
EXPONENTS  0.5477100D+00 0.1526861D+00 0.1526861D+00 0.1526861D+00 0.8000000D+00
EXPONENTS  0.8000000D+00 0.8000000D+00 0.8000000D+00 0.8000000D+00 0.8000000D+00
EXPONENTS  0.1238402D+04 0.1862900D+03 0.4225118D+02 0.1167656D+02 0.3593051D+01
EXPONENTS  0.4024515D+00 0.1309018D+00 0.9468097D+01 0.2010355D+01 0.5477100D+00
EXPONENTS  0.9468097D+01 0.2010355D+01 0.5477100D+00 0.9468097D+01 0.2010355D+01
EXPONENTS  0.5477100D+00 0.1526861D+00 0.1526861D+00 0.1526861D+00 0.8000000D+00
EXPONENTS  0.8000000D+00 0.8000000D+00 0.8000000D+00 0.8000000D+00 0.8000000D+00
EXPONENTS  0.1238402D+04 0.1862900D+03 0.4225118D+02 0.1167656D+02 0.3593051D+01
EXPONENTS  0.4024515D+00 0.1309018D+00 0.9468097D+01 0.2010355D+01 0.5477100D+00
EXPONENTS  0.9468097D+01 0.2010355D+01 0.5477100D+00 0.9468097D+01 0.2010355D+01
EXPONENTS  0.5477100D+00 0.1526861D+00 0.1526861D+00 0.1526861D+00 0.8000000D+00
EXPONENTS  0.8000000D+00 0.8000000D+00 0.8000000D+00 0.8000000D+00 0.8000000D+00
EXPONENTS  0.1238402D+04 0.1862900D+03 0.4225118D+02 0.1167656D+02 0.3593051D+01
EXPONENTS  0.4024515D+00 0.1309018D+00 0.9468097D+01 0.2010355D+01 0.5477100D+00
EXPONENTS  0.9468097D+01 0.2010355D+01 0.5477100D+00 0.9468097D+01 0.2010355D+01
EXPONENTS  0.5477100D+00 0.1526861D+00 0.1526861D+00 0.1526861D+00 0.8000000D+00
EXPONENTS  0.8000000D+00 0.8000000D+00 0.8000000D+00 0.8000000D+00 0.8000000D+00
EXPONENTS  0.1238402D+04 0.1862900D+03 0.4225118D+02 0.1167656D+02 0.3593051D+01
EXPONENTS  0.4024515D+00 0.1309018D+00 0.9468097D+01 0.2010355D+01 0.5477100D+00
EXPONENTS  0.9468097D+01 0.2010355D+01 0.5477100D+00 0.9468097D+01 0.2010355D+01
EXPONENTS  0.5477100D+00 0.1526861D+00 0.1526861D+00 0.1526861D+00 0.8000000D+00
EXPONENTS  0.8000000D+00 0.8000000D+00 0.8000000D+00 0.8000000D+00 0.8000000D+00
EXPONENTS  0.1238402D+04 0.1862900D+03 0.4225118D+02 0.1167656D+02 0.3593051D+01
EXPONENTS  0.4024515D+00 0.1309018D+00 0.9468097D+01 0.2010355D+01 0.5477100D+00
EXPONENTS  0.9468097D+01 0.2010355D+01 0.5477100D+00 0.9468097D+01 0.2010355D+01
EXPONENTS  0.5477100D+00 0.1526861D+00 0.1526861D+00 0.1526861D+00 0.8000000D+00
EXPONENTS  0.8000000D+00 0.8000000D+00 0.8000000D+00 0.8000000D+00 0.8000000D+00
EXPONENTS  0.1238402D+04 0.1862900D+03 0.4225118D+02 0.1167656D+02 0.3593051D+01
EXPONENTS  0.4024515D+00 0.1309018D+00 0.9468097D+01 0.2010355D+01 0.5477100D+00
EXPONENTS  0.9468097D+01 0.2010355D+01 0.5477100D+00 0.9468097D+01 0.2010355D+01
EXPONENTS  0.5477100D+00 0.1526861D+00 0.1526861D+00 0.1526861D+00 0.8000000D+00
EXPONENTS  0.8000000D+00 0.8000000D+00 0.8000000D+00 0.8000000D+00 0.8000000D+00
EXPONENTS  0.1238402D+04 0.1862900D+03 0.4225118D+02 0.1167656D+02 0.3593051D+01
EXPONENTS  0.4024515D+00 0.1309018D+00 0.9468097D+01 0.2010355D+01 0.5477100D+00
EXPONENTS  0.9468097D+01 0.2010355D+01 0.5477100D+00 0.9468097D+01 0.2010355D+01
EXPONENTS  0.5477100D+00 0.1526861D+00 0.1526861D+00 0.1526861D+00 0.8000000D+00
EXPONENTS  0.8000000D+00 0.8000000D+00 0.8000000D+00 0.8000000D+00 0.8000000D+00
EXPONENTS  0.1301070D+02 0.1962257D+01 0.4445380D+00 0.1219496D+00 0.8000000D+00
EXPONENTS  0.8000000D+00 0.8000000D+00 0.1301070D+02 0.1962257D+01 0.4445380D+00
EXPONENTS  0.1219496D+00 0.8000000D+00 0.8000000D+00 0.8000000D+00 0.1301070D+02
EXPONENTS  0.1962257D+01 0.4445380D+00 0.1219496D+00 0.8000000D+00 0.8000000D+00
EXPONENTS  0.8000000D+00 0.1301070D+02 0.1962257D+01 0.4445380D+00 0.1219496D+00
EXPONENTS  0.8000000D+00 0.8000000D+00 0.8000000D+00 0.1301070D+02 0.1962257D+01
EXPONENTS  0.4445380D+00 0.1219496D+00 0.8000000D+00 0.8000000D+00 0.8000000D+00
EXPONENTS  0.1301070D+02 0.1962257D+01 0.4445380D+00 0.1219496D+00 0.8000000D+00
EXPONENTS  0.8000000D+00 0.8000000D+00 0.1301070D+02 0.1962257D+01 0.4445380D+00
EXPONENTS  0.1219496D+00 0.8000000D+00 0.8000000D+00 0.8000000D+00 0.1301070D+02
EXPONENTS  0.1962257D+01 0.4445380D+00 0.1219496D+00 0.8000000D+00 0.8000000D+00
EXPONENTS  0.8000000D+00 0.1301070D+02 0.1962257D+01 0.4445380D+00 0.1219496D+00
EXPONENTS  0.8000000D+00 0.8000000D+00 0.8000000D+00 0.1301070D+02 0.1962257D+01
EXPONENTS  0.4445380D+00 0.1219496D+00 0.8000000D+00 0.8000000D+00 0.8000000D+00
MO    1     MO 0.0        OCC NO =    2.0000000  ORB. ENERGY =   -9.935659
  0.40519377D+00  0.72887138D+00  0.10625286D+01  0.10405930D+01  0.40924343D+00
  0.95847559D-02 -0.20022431D-02  0.33385083D-03  0.26469979D-03  0.12664097D-03
  0.96602502D-03  0.76593076D-03  0.36644613D-03  0.37291456D-09  0.29567219D-09
  0.14145917D-09 -0.15696463D-03  0.22117539D-02 -0.64558679D-09 -0.38084597D-05
  0.18152915D-02 -0.18114831D-02 -0.60010542D-04 -0.18836367D-08 -0.55874436D-09
  0.28419207D-02  0.51121087D-02  0.74522913D-02  0.72984406D-02  0.28703238D-02
 -0.36993445D-03  0.95524701D-03 -0.14986603D-02 -0.11882405D-02 -0.56849281D-03
 -0.60550661D-03 -0.48008709D-03 -0.22968925D-03  0.14913617D-08  0.11824537D-08
  0.56572421D-09  0.81436493D-03 -0.60422454D-03 -0.33123232D-09 -0.55640744D-03
 -0.16278043D-03  0.71918787D-03 -0.15118387D-02  0.16510672D-08  0.17980485D-08
  0.27035337D-02  0.48631752D-02  0.70894028D-02  0.69430438D-02  0.27305537D-02
  0.24414663D-03  0.87058417D-03  0.19741992D-03  0.15652802D-03  0.74888086D-04
 -0.91432444D-04 -0.72493900D-04 -0.34683435D-04  0.89670310D-10  0.71096760D-10
  0.34014997D-10  0.24675378D-03  0.77347135D-04  0.34065053D-09  0.24306334D-04
  0.46561179D-04 -0.70867512D-04  0.29006511D-04  0.31870820D-09 -0.23986151D-09
 -0.27041884D-02 -0.48643529D-02 -0.70911197D-02 -0.69447253D-02 -0.27312150D-02
 -0.24430141D-03 -0.87094625D-03 -0.19750662D-03 -0.15659677D-03 -0.74920977D-04
 -0.91284388D-04 -0.72376511D-04 -0.34627272D-04 -0.24521651D-10 -0.19442443D-10
 -0.93018959D-11 -0.24676254D-03  0.77150804D-04 -0.23596711D-09 -0.24264067D-04
 -0.46559013D-04  0.70823079D-04  0.28971155D-04 -0.16128478D-09 -0.23245984D-09
 -0.28409068D-02 -0.51102850D-02 -0.74496328D-02 -0.72958369D-02 -0.28692999D-02
  0.36971099D-03 -0.95501056D-03  0.14981650D-02  0.11878477D-02  0.56830491D-03
 -0.60520817D-03 -0.47985046D-03 -0.22957604D-03 -0.13643517D-08 -0.10817514D-08
 -0.51754499D-09 -0.81470444D-03 -0.60427744D-03  0.35938832D-09  0.55608796D-03
  0.16285077D-03 -0.71893874D-03 -0.15112776D-02 -0.16132400D-08  0.15992413D-08
 -0.40502901D+00 -0.72857500D+00 -0.10620966D+01 -0.10401699D+01 -0.40907702D+00
 -0.95814683D-02  0.20020991D-02 -0.33391977D-03 -0.26475445D-03 -0.12666712D-03
  0.96648605D-03  0.76629629D-03  0.36662102D-03 -0.78517112D-09 -0.62253741D-09
 -0.29784210D-09  0.15705962D-03  0.22119880D-02  0.46734839D-09  0.43880563D-05
 -0.18155913D-02  0.18112032D-02 -0.59964461D-04  0.18877288D-08  0.61758844D-09
 -0.10368625D-01 -0.18651307D-01 -0.27189362D-01 -0.26628045D-01 -0.10472252D-01
  0.75334790D-03 -0.33771753D-02  0.40367386D-07  0.32006027D-07  0.15312722D-07
 -0.12846378D-02 -0.10185488D-02 -0.48730680D-03  0.11336019D-08  0.89879720D-09
  0.43001375D-09  0.47933518D-07 -0.75047042D-03 -0.81465531D-09  0.10510915D-02
  0.28610946D-03 -0.13372009D-02 -0.35356619D-07  0.60864894D-10 -0.94932602D-09
 -0.40504078D+00 -0.72859616D+00 -0.10621274D+01 -0.10402001D+01 -0.40908890D+00
 -0.95817089D-02  0.20019966D-02  0.33394153D-03  0.26477170D-03  0.12667538D-03
  0.96645925D-03  0.76627505D-03  0.36661085D-03 -0.86864565D-09 -0.68872173D-09
 -0.32950683D-09 -0.15707130D-03  0.22119071D-02  0.47438039D-09  0.43355842D-05
 -0.18155382D-02  0.18112026D-02  0.59968424D-04 -0.21021134D-08  0.59426075D-09
  0.40517135D+00  0.72883103D+00  0.10624698D+01  0.10405354D+01  0.40922077D+00
  0.95842708D-02 -0.20022348D-02 -0.33383630D-03 -0.26468827D-03 -0.12663546D-03
  0.96601900D-03  0.76592598D-03  0.36644385D-03  0.30706555D-09  0.24346259D-09
  0.11648040D-09  0.15696457D-03  0.22117950D-02 -0.63306642D-09 -0.38599221D-05
  0.18153005D-02 -0.18114406D-02  0.60003087D-04  0.18485228D-08 -0.53037492D-09
  0.10371430D-01  0.18656353D-01  0.27196718D-01  0.26635249D-01  0.10475085D-01
 -0.75385851D-03  0.33770134D-02  0.85381121D-07  0.67695997D-07  0.32387962D-07
 -0.12851822D-02 -0.10189805D-02 -0.48751332D-03 -0.93051060D-09 -0.73777250D-09
 -0.35297431D-09  0.30561507D-07 -0.75054256D-03  0.75662899D-09 -0.10516631D-02
 -0.28598145D-03  0.13376445D-02  0.71915201D-07 -0.40568654D-10 -0.75183558D-09
 -0.28408985D-02 -0.51102699D-02 -0.74496108D-02 -0.72958154D-02 -0.28692914D-02
  0.36973711D-03 -0.95494195D-03 -0.14982240D-02 -0.11878945D-02 -0.56832730D-03
 -0.60522927D-03 -0.47986719D-03 -0.22958404D-03 -0.16435970D-08 -0.13031562D-08
 -0.62347222D-09  0.81466452D-03 -0.60428411D-03  0.48229194D-09  0.55611832D-03
  0.16283758D-03 -0.71895590D-03  0.15113086D-02  0.17938288D-08  0.18332143D-08
 -0.27041208D-02 -0.48642314D-02 -0.70909426D-02 -0.69445518D-02 -0.27311468D-02
 -0.24428256D-03 -0.87094247D-03  0.19749992D-03  0.15659145D-03  0.74918434D-04
 -0.91304006D-04 -0.72392066D-04 -0.34634714D-04 -0.13666696D-10 -0.10835892D-10
 -0.51842426D-11  0.24677402D-03  0.77166870D-04 -0.24147978D-09 -0.24271819D-04
 -0.46559394D-04  0.70831213D-04 -0.28968810D-04  0.18863038D-09 -0.34239309D-09
  0.27035294D-02  0.48631675D-02  0.70893917D-02  0.69430329D-02  0.27305494D-02
  0.24415800D-03  0.87059848D-03 -0.19742107D-03 -0.15652894D-03 -0.74888525D-04
 -0.91411195D-04 -0.72477053D-04 -0.34675374D-04  0.13238979D-09  0.10496769D-09
  0.50219949D-10 -0.24674743D-03  0.77333949D-04  0.42044435D-09  0.24298401D-04
  0.46560127D-04 -0.70858528D-04 -0.29008614D-04 -0.36137313D-09 -0.18391783D-09
  0.28418818D-02  0.51120389D-02  0.74521895D-02  0.72983409D-02  0.28702846D-02
 -0.36989420D-03  0.95525098D-03  0.14985623D-02  0.11881628D-02  0.56845564D-03
 -0.60546986D-03 -0.48005795D-03 -0.22967530D-03  0.13776736D-08  0.10923139D-08
  0.52259842D-09 -0.81438412D-03 -0.60421861D-03 -0.25898284D-09 -0.55636242D-03
 -0.16279185D-03  0.71915427D-03  0.15117727D-02 -0.15519526D-08  0.17446690D-08
 -0.12759586D-03 -0.21645866D-03 -0.24642679D-03 -0.31625289D-03  0.54511516D-04
  0.22246517D-03 -0.29346958D-09  0.84222755D-05  0.14287881D-04  0.16266001D-04
 -0.48114903D-05 -0.27602519D-04 -0.70984503D-04 -0.15654545D-09 -0.83820306D-05
 -0.14219608D-04 -0.16188276D-04  0.48817013D-05  0.27628602D-04 -0.70930428D-04
  0.95703756D-10  0.12760623D-03  0.21647626D-03  0.24644683D-03  0.31624110D-03
 -0.54299555D-04  0.22242433D-03  0.20005067D-09  0.22211614D-03  0.37680660D-03
  0.42897449D-03  0.67268874D-03 -0.21536985D-07  0.40835560D-03 -0.21074248D-09
 -0.22212564D-03 -0.37682272D-03 -0.42899283D-03 -0.67265353D-03 -0.23152117D-07
  0.40848118D-03  0.25155791D-10  0.12760563D-03  0.21647524D-03  0.24644567D-03
  0.31623164D-03  0.54317075D-04  0.22242980D-03  0.26138277D-09 -0.83861397D-05
 -0.14226579D-04 -0.16196212D-04  0.48748302D-05 -0.27628837D-04 -0.70931178D-04
  0.99052372D-10  0.84187623D-05  0.14281921D-04  0.16259216D-04 -0.48174593D-05
  0.27602654D-04 -0.70981975D-04 -0.18946673D-09 -0.12759418D-03 -0.21645581D-03
 -0.24642355D-03 -0.31625510D-03 -0.54494494D-04  0.22245532D-03 -0.28039618D-09
MO    2     MO 0.0        OCC NO =    2.0000000  ORB. ENERGY =   -9.935629
 -0.40570311D+00 -0.72978759D+00 -0.10638642D+01 -0.10419010D+01 -0.40975786D+00
 -0.86111366D-02 -0.11137914D-02 -0.43164464D-03 -0.34223742D-03 -0.16373749D-03
  0.24737002D-03  0.19613188D-03  0.93835859D-04 -0.49108424D-09 -0.38936520D-09
 -0.18628495D-09  0.13755985D-03  0.14458384D-02  0.49931342D-10 -0.12329725D-02
  0.73580024D-03  0.49717222D-03  0.13558344D-03  0.25329179D-08  0.25037160D-09
 -0.39214772D-03 -0.70540385D-03 -0.10283183D-02 -0.10070889D-02 -0.39606698D-03
  0.78653089D-03  0.85847368D-03  0.18629767D-02  0.14770955D-02  0.70669042D-03
  0.68655359D-03  0.54434668D-03  0.26043312D-03 -0.11098728D-08 -0.87998316D-09
 -0.42101250D-09  0.70011229D-03  0.14858725D-03 -0.64600918D-09  0.89448382D-03
 -0.29215575D-03 -0.60232807D-03  0.11500007D-02 -0.24664465D-08 -0.13524215D-08
  0.69083417D-03  0.12426875D-02  0.18115557D-02  0.17741565D-02  0.69773861D-03
  0.35741591D-03  0.21517613D-03  0.93146760D-04  0.73853127D-04  0.35333733D-04
  0.48477052D-03  0.38435925D-03  0.18388994D-03 -0.65307645D-11 -0.51780371D-11
 -0.24773410D-11 -0.21135249D-03 -0.34657604D-03  0.21439234D-09 -0.18623902D-03
 -0.16995202D-04  0.20323423D-03  0.52548767D-04  0.52891449D-09 -0.18242031D-09
  0.69201650D-03  0.12448143D-02  0.18146561D-02  0.17771929D-02  0.69893276D-03
  0.35754499D-03  0.21495418D-03  0.93242825D-04  0.73929294D-04  0.35370174D-04
 -0.48474353D-03 -0.38433785D-03 -0.18387970D-03  0.96721101D-10  0.76687109D-10
  0.36689602D-10 -0.21145441D-03  0.34663341D-03  0.84677919D-10 -0.18623648D-03
 -0.16985246D-04  0.20322173D-03 -0.52551859D-04  0.56181424D-09  0.19294174D-09
 -0.39134212D-03 -0.70395471D-03 -0.10262058D-02 -0.10050200D-02 -0.39525333D-03
  0.78628181D-03  0.85963546D-03  0.18623063D-02  0.14765639D-02  0.70643610D-03
 -0.68628361D-03 -0.54413262D-03 -0.26033071D-03 -0.10227693D-08 -0.81092153D-09
 -0.38797118D-09  0.70047023D-03 -0.14861830D-03 -0.61857907D-09  0.89423463D-03
 -0.29218484D-03 -0.60204978D-03 -0.11494040D-02 -0.24158800D-08  0.13209685D-08
 -0.40552055D+00 -0.72945918D+00 -0.10633855D+01 -0.10414322D+01 -0.40957346D+00
 -0.86069616D-02 -0.11157582D-02 -0.43179983D-03 -0.34236046D-03 -0.16379636D-03
 -0.24795254D-03 -0.19659374D-03 -0.94056827D-04 -0.48333103D-09 -0.38321792D-09
 -0.18334389D-09  0.13777244D-03 -0.14465150D-02  0.38672036D-10 -0.12329939D-02
  0.73655441D-03  0.49643947D-03 -0.13553083D-03  0.23780112D-08 -0.58350961D-09
 -0.34635147D-06 -0.62302456D-06 -0.90822805D-06 -0.88947791D-06 -0.34981303D-06
  0.38109716D-07 -0.63842704D-07 -0.29864402D-02 -0.23678542D-02 -0.11328583D-02
 -0.50834393D-07 -0.40304986D-07 -0.19283214D-07 -0.40290780D-10 -0.31945288D-10
 -0.15283663D-10 -0.18622092D-02 -0.19073225D-07 -0.19804297D-10  0.46844164D-07
  0.56055506D-09 -0.47404719D-07  0.25425245D-02 -0.24239923D-08  0.31249710D-10
  0.40549067D+00  0.72940543D+00  0.10633072D+01  0.10413554D+01  0.40954329D+00
  0.86063040D-02  0.11158591D-02 -0.43179307D-03 -0.34235510D-03 -0.16379379D-03
  0.24795416D-03  0.19659503D-03  0.94057443D-04  0.53134467D-09  0.42128643D-09
  0.20155710D-09  0.13777479D-03  0.14465932D-02 -0.16888601D-10  0.12329481D-02
 -0.73660752D-03 -0.49634061D-03 -0.13552440D-03  0.25907468D-08  0.67072568D-09
  0.40570739D+00  0.72979528D+00  0.10638755D+01  0.10419120D+01  0.40976217D+00
  0.86112870D-02  0.11137235D-02 -0.43166610D-03 -0.34225443D-03 -0.16374563D-03
 -0.24729024D-03 -0.19606863D-03 -0.93805596D-04  0.40558358D-09  0.32157442D-09
  0.15385164D-09  0.13757531D-03 -0.14457302D-02 -0.45388987D-10  0.12329264D-02
 -0.73570026D-03 -0.49722613D-03  0.13558220D-03  0.25011784D-08 -0.18235617D-09
  0.96531849D-07  0.17364359D-06  0.25313284D-06  0.24790698D-06  0.97496623D-07
  0.63547737D-08  0.78311587D-07 -0.29881074D-02 -0.23691761D-02 -0.11334907D-02
 -0.34763997D-08 -0.27563277D-08 -0.13187166D-08 -0.98278672D-11 -0.77922058D-11
 -0.37280442D-11 -0.18615410D-02 -0.12560935D-07 -0.26558035D-10  0.25777159D-08
 -0.11539490D-07  0.89617743D-08 -0.25439012D-02 -0.23972407D-08 -0.30137431D-10
  0.39113805D-03  0.70358764D-03  0.10256707D-02  0.10044960D-02  0.39504722D-03
 -0.78624975D-03 -0.85969961D-03  0.18622071D-02  0.14764852D-02  0.70639847D-03
  0.68623468D-03  0.54409382D-03  0.26031215D-03  0.11075047D-08  0.87810551D-09
  0.42011418D-09  0.70047775D-03  0.14859812D-03  0.70846957D-09 -0.89418674D-03
  0.29218668D-03  0.60200006D-03 -0.11492958D-02 -0.27522540D-08 -0.14297321D-08
 -0.69207572D-03 -0.12449209D-02 -0.18148113D-02 -0.17773450D-02 -0.69899257D-03
 -0.35754317D-03 -0.21496008D-03  0.93243916D-04  0.73930159D-04  0.35370588D-04
  0.48472863D-03  0.38432603D-03  0.18387405D-03 -0.10153977D-09 -0.80507676D-10
 -0.38517485D-10 -0.21144560D-03 -0.34661449D-03 -0.70049725D-10  0.18623251D-03
  0.16983160D-04 -0.20321567D-03 -0.52556317D-04  0.59449945D-09 -0.16449658D-09
 -0.69066572D-03 -0.12423845D-02 -0.18111139D-02 -0.17737239D-02 -0.69756848D-03
 -0.35739349D-03 -0.21510885D-03  0.93131249D-04  0.73840829D-04  0.35327849D-04
 -0.48476328D-03 -0.38435351D-03 -0.18388719D-03  0.11781404D-10  0.93411036D-11
  0.44690872D-11 -0.21136442D-03  0.34656345D-03 -0.23954444D-09  0.18623707D-03
  0.16997015D-04 -0.20323409D-03  0.52550782D-04  0.51877216D-09  0.22907090D-09
  0.39218430D-03  0.70546965D-03  0.10284142D-02  0.10071829D-02  0.39610393D-03
 -0.78652997D-03 -0.85845719D-03  0.18630039D-02  0.14771170D-02  0.70670072D-03
 -0.68655574D-03 -0.54434839D-03 -0.26043394D-03  0.11156328D-08  0.88455001D-09
  0.42319744D-09  0.70005104D-03 -0.14861792D-03  0.59719616D-09 -0.89448282D-03
  0.29214386D-03  0.60233896D-03  0.11500200D-02 -0.23363494D-08  0.13651129D-08
  0.12801838D-04  0.21717544D-04  0.24724281D-04 -0.13869221D-03 -0.41023784D-03
 -0.18144856D-03  0.42145476D-09 -0.90310941D-04 -0.15320705D-03 -0.17441817D-03
 -0.15224828D-03  0.13764634D-05  0.38768863D-04 -0.23799720D-09 -0.90322246D-04
 -0.15322623D-03 -0.17444000D-03 -0.15226480D-03  0.13842408D-05 -0.38738999D-04
 -0.18627692D-09  0.12763913D-04  0.21653208D-04  0.24651038D-04 -0.13881719D-03
 -0.41025092D-03  0.18137329D-03  0.41495457D-09  0.51005431D-08  0.86527632D-08
  0.98507156D-08  0.12687961D-07  0.10629248D-02  0.14098132D-07  0.16230716D-10
 -0.42398551D-08 -0.71926580D-08 -0.81884626D-08 -0.15636424D-07  0.10629826D-02
  0.31393481D-08  0.15354279D-10 -0.12759512D-04 -0.21645740D-04 -0.24642536D-04
  0.13883199D-03 -0.41023172D-03 -0.18136101D-03 -0.43899208D-09  0.90318739D-04
  0.15322028D-03  0.17443323D-03  0.15225949D-03  0.13853885D-05  0.38731478D-04
  0.19616145D-09  0.90308128D-04  0.15320228D-03  0.17441274D-03  0.15224253D-03
  0.13798911D-05 -0.38767295D-04  0.25964513D-09 -0.12808176D-04 -0.21728297D-04
 -0.24736523D-04  0.13868038D-03 -0.41022324D-03  0.18145501D-03 -0.41263656D-09
MO    3     MO 0.0        OCC NO =    2.0000000  ORB. ENERGY =   -9.935601
  0.40556491D+00  0.72953899D+00  0.10635019D+01  0.10415461D+01  0.40961827D+00
  0.80337769D-02 -0.52702143D-03 -0.23841962D-03 -0.18903540D-03 -0.90440669D-04
 -0.12391341D-02 -0.98247036D-03 -0.47004571D-03  0.49627679D-09  0.39348221D-09
  0.18825466D-09  0.27546726D-03 -0.47532945D-03  0.14735707D-09  0.14505586D-02
 -0.73882244D-03 -0.71173614D-03 -0.11288252D-03 -0.17869017D-08 -0.46447941D-09
  0.27320031D-02  0.49143866D-02  0.71640575D-02  0.70161573D-02  0.27593077D-02
 -0.52351643D-03  0.74931040D-03 -0.11456496D-02 -0.90834943D-03 -0.43458385D-03
 -0.74044899D-03 -0.58707864D-03 -0.28087748D-03  0.88322916D-09  0.70028454D-09
  0.33503885D-09 -0.85168346D-03  0.16233955D-03  0.10687413D-09 -0.77361106D-03
  0.15875732D-03  0.61485374D-03 -0.14078069D-02  0.26675291D-08  0.97042772D-09
 -0.17224067D-02 -0.30983027D-02 -0.45166203D-02 -0.44233758D-02 -0.17396211D-02
 -0.38392412D-03 -0.97012917D-03 -0.22727807D-03 -0.18020161D-03 -0.86214301D-04
 -0.35074058D-03 -0.27809114D-03 -0.13304783D-03  0.34743691D-09  0.27547176D-09
  0.13179463D-09 -0.48501095D-04  0.49942778D-03 -0.38668012D-09  0.94563272D-04
  0.39412795D-05 -0.98504551D-04  0.10299770D-03 -0.77566799D-09  0.14633365D-10
 -0.17216408D-02 -0.30969249D-02 -0.45146118D-02 -0.44214088D-02 -0.17388475D-02
 -0.38385916D-03 -0.96978118D-03 -0.22722420D-03 -0.18015890D-03 -0.86193866D-04
  0.35076852D-03  0.27811329D-03  0.13305842D-03  0.20630131D-09  0.16356980D-09
  0.78257101D-10 -0.48396010D-04 -0.49946553D-03 -0.15594958D-09  0.94571521D-04
  0.39561542D-05 -0.98527676D-04 -0.10300756D-03 -0.78281998D-09 -0.74958235D-10
  0.27328762D-02  0.49159572D-02  0.71663470D-02  0.70183995D-02  0.27601896D-02
 -0.52360531D-03  0.74945110D-03 -0.11460682D-02 -0.90868128D-03 -0.43474262D-03
  0.74061823D-03  0.58721283D-03  0.28094168D-03  0.83664597D-09  0.66335019D-09
  0.31736826D-09 -0.85145550D-03 -0.16211896D-03  0.20634263D-09 -0.77376642D-03
  0.15870421D-03  0.61506221D-03  0.14082428D-02  0.26052198D-08 -0.10374644D-08
  0.40567786D+00  0.72974216D+00  0.10637980D+01  0.10418362D+01  0.40973235D+00
  0.80364736D-02 -0.52739439D-03 -0.23827350D-03 -0.18891954D-03 -0.90385239D-04
  0.12388904D-02  0.98227713D-03  0.46995326D-03  0.63767948D-09  0.50559594D-09
  0.24189351D-09  0.27537526D-03  0.47465774D-03 -0.78049981D-10  0.14505613D-02
 -0.73830532D-03 -0.71225600D-03  0.11289507D-03 -0.17556033D-08  0.75240986D-09
  0.76144338D-02  0.13697009D-01  0.19967123D-01  0.19554906D-01  0.76905352D-02
 -0.14060538D-02 -0.43823221D-03 -0.19111950D-06 -0.15153262D-06 -0.72498125D-07
  0.14963340D-02  0.11863960D-02  0.56761035D-03 -0.13710675D-08 -0.10870762D-08
 -0.52009252D-09  0.28235214D-07  0.19754106D-03 -0.46113551D-10 -0.15703957D-02
  0.35087863D-03  0.12195170D-02  0.15922092D-06 -0.53778505D-10  0.86545253D-09
  0.40572520D+00  0.72982732D+00  0.10639222D+01  0.10419578D+01  0.40978017D+00
  0.80375375D-02 -0.52771388D-03  0.23828450D-03  0.18892826D-03  0.90389412D-04
  0.12387904D-02  0.98219782D-03  0.46991531D-03  0.69152338D-09  0.54828707D-09
  0.26231833D-09 -0.27540645D-03  0.47457071D-03 -0.60145231D-10  0.14505965D-02
 -0.73818488D-03 -0.71241160D-03 -0.11290849D-03  0.19608996D-08  0.83525347D-09
  0.40554320D+00  0.72949993D+00  0.10634449D+01  0.10414903D+01  0.40959634D+00
  0.80332568D-02 -0.52663143D-03  0.23838178D-03  0.18900539D-03  0.90426314D-04
 -0.12392498D-02 -0.98256206D-03 -0.47008958D-03  0.43322520D-09  0.34349059D-09
  0.16433705D-09 -0.27542719D-03 -0.47550786D-03  0.14431211D-09  0.14506011D-02
 -0.73898923D-03 -0.71161188D-03  0.11287700D-03  0.18060330D-08 -0.41988632D-09
  0.76106627D-02  0.13690226D-01  0.19957234D-01  0.19545222D-01  0.76867263D-02
 -0.14057786D-02 -0.43945895D-03  0.97232605D-07  0.77092665D-07  0.36883633D-07
 -0.14958660D-02 -0.11860249D-02 -0.56743282D-03 -0.12836179D-08 -0.10177401D-08
 -0.48691992D-09 -0.87014046D-07 -0.19726725D-03 -0.22632137D-09 -0.15700130D-02
  0.35098304D-03  0.12190300D-02  0.78836111D-07 -0.62854439D-10 -0.12001484D-08