 ***
GAUSSIAN             86 MOL ORBITALS    709 PRIMITIVES       37 NUCLEI
  C    1    (CENTRE  1)   6.08715239  3.10569403  0.00809405  CHARGE =  6.0
  C    2    (CENTRE  2)   5.43824439  5.67675364 -0.22211864  CHARGE =  6.0
  C    3    (CENTRE  3)   2.87806928  6.38772948 -0.60975011  CHARGE =  6.0
  C    4    (CENTRE  4)   1.00412672  4.53405270 -0.75620745  CHARGE =  6.0
  C    5    (CENTRE  5)   1.58531006  1.91970980 -0.52585217  CHARGE =  6.0
  C    6    (CENTRE  6)   4.18012070  1.26860393 -0.14335023  CHARGE =  6.0
  C    7    (CENTRE  7)  -0.27031683 -0.09945479 -0.64656548  CHARGE =  6.0
  C    8    (CENTRE  8)   0.53044427 -2.60566117 -0.44266198  CHARGE =  6.0
  C    9    (CENTRE  9)   3.20938765 -3.16481858 -0.05563627  CHARGE =  6.0
  O   10    (CENTRE 10)   4.92540371 -1.19086527  0.08701409  CHARGE =  8.0
  C   11    (CENTRE 11)   2.44721093 -7.78856447  0.04941817  CHARGE =  6.0
  C   12    (CENTRE 12)   4.13081492 -5.58046249  0.17354105  CHARGE =  6.0
  O   13    (CENTRE 13)   7.34642643  7.40467324 -0.06290462  CHARGE =  8.0
  C   14    (CENTRE 14)  -2.99696618  0.53254908 -1.16298802  CHARGE =  6.0
  C   15    (CENTRE 15)  -3.82019047  0.51420326 -3.70660059  CHARGE =  6.0
  C   16    (CENTRE 16)  -6.33479690  1.08291672 -4.35281812  CHARGE =  6.0
  C   17    (CENTRE 17)  -8.09209500  1.68236331 -2.44972121  CHARGE =  6.0
  C   18    (CENTRE 18)  -7.31726850  1.70682494  0.08608842  CHARGE =  6.0
  C   19    (CENTRE 19)  -4.78682097  1.14718416  0.76075636  CHARGE =  6.0
  C   20    (CENTRE 20)  -1.15454290 -4.77605730 -0.55998794  CHARGE =  6.0
  C   21    (CENTRE 21)  -0.27625743 -7.19694090 -0.33285773  CHARGE =  6.0
  O   22    (CENTRE 22)   3.21620221-10.00322228  0.24593905  CHARGE =  8.0
  C   23    (CENTRE 23)  -4.00111833  1.19064998  3.49008744  CHARGE =  6.0
  O   24    (CENTRE 24)  -5.98766730  1.63048933  5.08952622  CHARGE =  8.0
  O   25    (CENTRE 25)  -1.85178419  0.88451090  4.27468977  CHARGE =  8.0
  H   26    (CENTRE 26)   8.05816006  2.53661567  0.30505997  CHARGE =  1.0
  H   27    (CENTRE 27)   2.37946959  8.39971240 -0.79154791  CHARGE =  1.0
  H   28    (CENTRE 28)  -0.96875767  5.10397171 -1.05339941  CHARGE =  1.0
  H   29    (CENTRE 29)   6.15923544 -5.90956686  0.45982754  CHARGE =  1.0
  H   30    (CENTRE 30)   6.64147250  9.10192088 -0.24522901  CHARGE =  1.0
  H   31    (CENTRE 31)  -2.45315815  0.03644923 -5.19635387  CHARGE =  1.0
  H   32    (CENTRE 32)  -6.91828645  1.04977920 -6.34773912  CHARGE =  1.0
  H   33    (CENTRE 33) -10.06288693  2.12408968 -2.93856125  CHARGE =  1.0
  H   34    (CENTRE 34)  -8.67025769  2.16116595  1.58940381  CHARGE =  1.0
  H   35    (CENTRE 35)  -3.18147431 -4.41796342 -0.83679914  CHARGE =  1.0
  H   36    (CENTRE 36)  -1.55706597 -8.83177825 -0.42164010  CHARGE =  1.0
  H   37    (CENTRE 37)  -5.25814404  1.61726445  6.79764490  CHARGE =  1.0
CENTRE ASSIGNMENTS    1  1  1  1  1  1  1  1  1  1  1  1  1  1  1  1  1  1  1  1
CENTRE ASSIGNMENTS    1  1  1  1  1  2  2  2  2  2  2  2  2  2  2  2  2  2  2  2
CENTRE ASSIGNMENTS    2  2  2  2  2  2  2  2  2  2  3  3  3  3  3  3  3  3  3  3
CENTRE ASSIGNMENTS    3  3  3  3  3  3  3  3  3  3  3  3  3  3  3  4  4  4  4  4
CENTRE ASSIGNMENTS    4  4  4  4  4  4  4  4  4  4  4  4  4  4  4  4  4  4  4  4
CENTRE ASSIGNMENTS    5  5  5  5  5  5  5  5  5  5  5  5  5  5  5  5  5  5  5  5
CENTRE ASSIGNMENTS    5  5  5  5  5  6  6  6  6  6  6  6  6  6  6  6  6  6  6  6
CENTRE ASSIGNMENTS    6  6  6  6  6  6  6  6  6  6  7  7  7  7  7  7  7  7  7  7
CENTRE ASSIGNMENTS    7  7  7  7  7  7  7  7  7  7  7  7  7  7  7  8  8  8  8  8
CENTRE ASSIGNMENTS    8  8  8  8  8  8  8  8  8  8  8  8  8  8  8  8  8  8  8  8
CENTRE ASSIGNMENTS    9  9  9  9  9  9  9  9  9  9  9  9  9  9  9  9  9  9  9  9
CENTRE ASSIGNMENTS    9  9  9  9  9 10 10 10 10 10 10 10 10 10 10 10 10 10 10 10
CENTRE ASSIGNMENTS   10 10 10 10 10 10 10 10 10 10 11 11 11 11 11 11 11 11 11 11
CENTRE ASSIGNMENTS   11 11 11 11 11 11 11 11 11 11 11 11 11 11 11 12 12 12 12 12
CENTRE ASSIGNMENTS   12 12 12 12 12 12 12 12 12 12 12 12 12 12 12 12 12 12 12 12
CENTRE ASSIGNMENTS   13 13 13 13 13 13 13 13 13 13 13 13 13 13 13 13 13 13 13 13
CENTRE ASSIGNMENTS   13 13 13 13 13 14 14 14 14 14 14 14 14 14 14 14 14 14 14 14
CENTRE ASSIGNMENTS   14 14 14 14 14 14 14 14 14 14 15 15 15 15 15 15 15 15 15 15
CENTRE ASSIGNMENTS   15 15 15 15 15 15 15 15 15 15 15 15 15 15 15 16 16 16 16 16
CENTRE ASSIGNMENTS   16 16 16 16 16 16 16 16 16 16 16 16 16 16 16 16 16 16 16 16
CENTRE ASSIGNMENTS   17 17 17 17 17 17 17 17 17 17 17 17 17 17 17 17 17 17 17 17
CENTRE ASSIGNMENTS   17 17 17 17 17 18 18 18 18 18 18 18 18 18 18 18 18 18 18 18
CENTRE ASSIGNMENTS   18 18 18 18 18 18 18 18 18 18 19 19 19 19 19 19 19 19 19 19
CENTRE ASSIGNMENTS   19 19 19 19 19 19 19 19 19 19 19 19 19 19 19 20 20 20 20 20
CENTRE ASSIGNMENTS   20 20 20 20 20 20 20 20 20 20 20 20 20 20 20 20 20 20 20 20
CENTRE ASSIGNMENTS   21 21 21 21 21 21 21 21 21 21 21 21 21 21 21 21 21 21 21 21
CENTRE ASSIGNMENTS   21 21 21 21 21 22 22 22 22 22 22 22 22 22 22 22 22 22 22 22
CENTRE ASSIGNMENTS   22 22 22 22 22 22 22 22 22 22 23 23 23 23 23 23 23 23 23 23
CENTRE ASSIGNMENTS   23 23 23 23 23 23 23 23 23 23 23 23 23 23 23 24 24 24 24 24
CENTRE ASSIGNMENTS   24 24 24 24 24 24 24 24 24 24 24 24 24 24 24 24 24 24 24 24
CENTRE ASSIGNMENTS   25 25 25 25 25 25 25 25 25 25 25 25 25 25 25 25 25 25 25 25
CENTRE ASSIGNMENTS   25 25 25 25 25 26 26 26 26 26 26 26 27 27 27 27 27 27 27 28
CENTRE ASSIGNMENTS   28 28 28 28 28 28 29 29 29 29 29 29 29 30 30 30 30 30 30 30
CENTRE ASSIGNMENTS   31 31 31 31 31 31 31 32 32 32 32 32 32 32 33 33 33 33 33 33
CENTRE ASSIGNMENTS   33 34 34 34 34 34 34 34 35 35 35 35 35 35 35 36 36 36 36 36
CENTRE ASSIGNMENTS   36 36 37 37 37 37 37 37 37
TYPE ASSIGNMENTS      1  1  1  1  1  1  1  2  2  2  3  3  3  4  4  4  2  3  4  5
TYPE ASSIGNMENTS      6  7  8  9 10  1  1  1  1  1  1  1  2  2  2  3  3  3  4  4
TYPE ASSIGNMENTS      4  2  3  4  5  6  7  8  9 10  1  1  1  1  1  1  1  2  2  2
TYPE ASSIGNMENTS      3  3  3  4  4  4  2  3  4  5  6  7  8  9 10  1  1  1  1  1
TYPE ASSIGNMENTS      1  1  2  2  2  3  3  3  4  4  4  2  3  4  5  6  7  8  9 10
TYPE ASSIGNMENTS      1  1  1  1  1  1  1  2  2  2  3  3  3  4  4  4  2  3  4  5
TYPE ASSIGNMENTS      6  7  8  9 10  1  1  1  1  1  1  1  2  2  2  3  3  3  4  4
TYPE ASSIGNMENTS      4  2  3  4  5  6  7  8  9 10  1  1  1  1  1  1  1  2  2  2
TYPE ASSIGNMENTS      3  3  3  4  4  4  2  3  4  5  6  7  8  9 10  1  1  1  1  1
TYPE ASSIGNMENTS      1  1  2  2  2  3  3  3  4  4  4  2  3  4  5  6  7  8  9 10
TYPE ASSIGNMENTS      1  1  1  1  1  1  1  2  2  2  3  3  3  4  4  4  2  3  4  5
TYPE ASSIGNMENTS      6  7  8  9 10  1  1  1  1  1  1  1  2  2  2  3  3  3  4  4
TYPE ASSIGNMENTS      4  2  3  4  5  6  7  8  9 10  1  1  1  1  1  1  1  2  2  2
TYPE ASSIGNMENTS      3  3  3  4  4  4  2  3  4  5  6  7  8  9 10  1  1  1  1  1
TYPE ASSIGNMENTS      1  1  2  2  2  3  3  3  4  4  4  2  3  4  5  6  7  8  9 10
TYPE ASSIGNMENTS      1  1  1  1  1  1  1  2  2  2  3  3  3  4  4  4  2  3  4  5
TYPE ASSIGNMENTS      6  7  8  9 10  1  1  1  1  1  1  1  2  2  2  3  3  3  4  4
TYPE ASSIGNMENTS      4  2  3  4  5  6  7  8  9 10  1  1  1  1  1  1  1  2  2  2
TYPE ASSIGNMENTS      3  3  3  4  4  4  2  3  4  5  6  7  8  9 10  1  1  1  1  1
TYPE ASSIGNMENTS      1  1  2  2  2  3  3  3  4  4  4  2  3  4  5  6  7  8  9 10
TYPE ASSIGNMENTS      1  1  1  1  1  1  1  2  2  2  3  3  3  4  4  4  2  3  4  5
TYPE ASSIGNMENTS      6  7  8  9 10  1  1  1  1  1  1  1  2  2  2  3  3  3  4  4
TYPE ASSIGNMENTS      4  2  3  4  5  6  7  8  9 10  1  1  1  1  1  1  1  2  2  2
TYPE ASSIGNMENTS      3  3  3  4  4  4  2  3  4  5  6  7  8  9 10  1  1  1  1  1
TYPE ASSIGNMENTS      1  1  2  2  2  3  3  3  4  4  4  2  3  4  5  6  7  8  9 10
TYPE ASSIGNMENTS      1  1  1  1  1  1  1  2  2  2  3  3  3  4  4  4  2  3  4  5
TYPE ASSIGNMENTS      6  7  8  9 10  1  1  1  1  1  1  1  2  2  2  3  3  3  4  4
TYPE ASSIGNMENTS      4  2  3  4  5  6  7  8  9 10  1  1  1  1  1  1  1  2  2  2
TYPE ASSIGNMENTS      3  3  3  4  4  4  2  3  4  5  6  7  8  9 10  1  1  1  1  1
TYPE ASSIGNMENTS      1  1  2  2  2  3  3  3  4  4  4  2  3  4  5  6  7  8  9 10
TYPE ASSIGNMENTS      1  1  1  1  1  1  1  2  2  2  3  3  3  4  4  4  2  3  4  5
TYPE ASSIGNMENTS      6  7  8  9 10  1  1  1  1  2  3  4  1  1  1  1  2  3  4  1
TYPE ASSIGNMENTS      1  1  1  2  3  4  1  1  1  1  2  3  4  1  1  1  1  2  3  4
TYPE ASSIGNMENTS      1  1  1  1  2  3  4  1  1  1  1  2  3  4  1  1  1  1  2  3
TYPE ASSIGNMENTS      4  1  1  1  1  2  3  4  1  1  1  1  2  3  4  1  1  1  1  2
TYPE ASSIGNMENTS      3  4  1  1  1  1  2  3  4
EXPONENTS  0.1238402D+04 0.1862900D+03 0.4225118D+02 0.1167656D+02 0.3593051D+01
EXPONENTS  0.4024515D+00 0.1309018D+00 0.9468097D+01 0.2010355D+01 0.5477100D+00
EXPONENTS  0.9468097D+01 0.2010355D+01 0.5477100D+00 0.9468097D+01 0.2010355D+01
EXPONENTS  0.5477100D+00 0.1526861D+00 0.1526861D+00 0.1526861D+00 0.8000000D+00
EXPONENTS  0.8000000D+00 0.8000000D+00 0.8000000D+00 0.8000000D+00 0.8000000D+00
EXPONENTS  0.1238402D+04 0.1862900D+03 0.4225118D+02 0.1167656D+02 0.3593051D+01
EXPONENTS  0.4024515D+00 0.1309018D+00 0.9468097D+01 0.2010355D+01 0.5477100D+00
EXPONENTS  0.9468097D+01 0.2010355D+01 0.5477100D+00 0.9468097D+01 0.2010355D+01
EXPONENTS  0.5477100D+00 0.1526861D+00 0.1526861D+00 0.1526861D+00 0.8000000D+00
EXPONENTS  0.8000000D+00 0.8000000D+00 0.8000000D+00 0.8000000D+00 0.8000000D+00
EXPONENTS  0.1238402D+04 0.1862900D+03 0.4225118D+02 0.1167656D+02 0.3593051D+01
EXPONENTS  0.4024515D+00 0.1309018D+00 0.9468097D+01 0.2010355D+01 0.5477100D+00
EXPONENTS  0.9468097D+01 0.2010355D+01 0.5477100D+00 0.9468097D+01 0.2010355D+01
EXPONENTS  0.5477100D+00 0.1526861D+00 0.1526861D+00 0.1526861D+00 0.8000000D+00
EXPONENTS  0.8000000D+00 0.8000000D+00 0.8000000D+00 0.8000000D+00 0.8000000D+00
EXPONENTS  0.1238402D+04 0.1862900D+03 0.4225118D+02 0.1167656D+02 0.3593051D+01
EXPONENTS  0.4024515D+00 0.1309018D+00 0.9468097D+01 0.2010355D+01 0.5477100D+00
EXPONENTS  0.9468097D+01 0.2010355D+01 0.5477100D+00 0.9468097D+01 0.2010355D+01
EXPONENTS  0.5477100D+00 0.1526861D+00 0.1526861D+00 0.1526861D+00 0.8000000D+00
EXPONENTS  0.8000000D+00 0.8000000D+00 0.8000000D+00 0.8000000D+00 0.8000000D+00
EXPONENTS  0.1238402D+04 0.1862900D+03 0.4225118D+02 0.1167656D+02 0.3593051D+01
EXPONENTS  0.4024515D+00 0.1309018D+00 0.9468097D+01 0.2010355D+01 0.5477100D+00
EXPONENTS  0.9468097D+01 0.2010355D+01 0.5477100D+00 0.9468097D+01 0.2010355D+01
EXPONENTS  0.5477100D+00 0.1526861D+00 0.1526861D+00 0.1526861D+00 0.8000000D+00
EXPONENTS  0.8000000D+00 0.8000000D+00 0.8000000D+00 0.8000000D+00 0.8000000D+00
EXPONENTS  0.1238402D+04 0.1862900D+03 0.4225118D+02 0.1167656D+02 0.3593051D+01
EXPONENTS  0.4024515D+00 0.1309018D+00 0.9468097D+01 0.2010355D+01 0.5477100D+00
EXPONENTS  0.9468097D+01 0.2010355D+01 0.5477100D+00 0.9468097D+01 0.2010355D+01
EXPONENTS  0.5477100D+00 0.1526861D+00 0.1526861D+00 0.1526861D+00 0.8000000D+00
EXPONENTS  0.8000000D+00 0.8000000D+00 0.8000000D+00 0.8000000D+00 0.8000000D+00
EXPONENTS  0.1238402D+04 0.1862900D+03 0.4225118D+02 0.1167656D+02 0.3593051D+01
EXPONENTS  0.4024515D+00 0.1309018D+00 0.9468097D+01 0.2010355D+01 0.5477100D+00
EXPONENTS  0.9468097D+01 0.2010355D+01 0.5477100D+00 0.9468097D+01 0.2010355D+01
EXPONENTS  0.5477100D+00 0.1526861D+00 0.1526861D+00 0.1526861D+00 0.8000000D+00
EXPONENTS  0.8000000D+00 0.8000000D+00 0.8000000D+00 0.8000000D+00 0.8000000D+00
EXPONENTS  0.1238402D+04 0.1862900D+03 0.4225118D+02 0.1167656D+02 0.3593051D+01
EXPONENTS  0.4024515D+00 0.1309018D+00 0.9468097D+01 0.2010355D+01 0.5477100D+00
EXPONENTS  0.9468097D+01 0.2010355D+01 0.5477100D+00 0.9468097D+01 0.2010355D+01
EXPONENTS  0.5477100D+00 0.1526861D+00 0.1526861D+00 0.1526861D+00 0.8000000D+00
EXPONENTS  0.8000000D+00 0.8000000D+00 0.8000000D+00 0.8000000D+00 0.8000000D+00
EXPONENTS  0.1238402D+04 0.1862900D+03 0.4225118D+02 0.1167656D+02 0.3593051D+01
EXPONENTS  0.4024515D+00 0.1309018D+00 0.9468097D+01 0.2010355D+01 0.5477100D+00
EXPONENTS  0.9468097D+01 0.2010355D+01 0.5477100D+00 0.9468097D+01 0.2010355D+01
EXPONENTS  0.5477100D+00 0.1526861D+00 0.1526861D+00 0.1526861D+00 0.8000000D+00
EXPONENTS  0.8000000D+00 0.8000000D+00 0.8000000D+00 0.8000000D+00 0.8000000D+00
EXPONENTS  0.2266177D+04 0.3408701D+03 0.7736314D+02 0.2147964D+02 0.6658943D+01
EXPONENTS  0.8097598D+00 0.2553077D+00 0.1772150D+02 0.3863551D+01 0.1048092D+01
EXPONENTS  0.1772150D+02 0.3863551D+01 0.1048092D+01 0.1772150D+02 0.3863551D+01
EXPONENTS  0.1048092D+01 0.2764154D+00 0.2764154D+00 0.2764154D+00 0.1200000D+01
EXPONENTS  0.1200000D+01 0.1200000D+01 0.1200000D+01 0.1200000D+01 0.1200000D+01
EXPONENTS  0.1238402D+04 0.1862900D+03 0.4225118D+02 0.1167656D+02 0.3593051D+01
EXPONENTS  0.4024515D+00 0.1309018D+00 0.9468097D+01 0.2010355D+01 0.5477100D+00
EXPONENTS  0.9468097D+01 0.2010355D+01 0.5477100D+00 0.9468097D+01 0.2010355D+01
EXPONENTS  0.5477100D+00 0.1526861D+00 0.1526861D+00 0.1526861D+00 0.8000000D+00
EXPONENTS  0.8000000D+00 0.8000000D+00 0.8000000D+00 0.8000000D+00 0.8000000D+00
EXPONENTS  0.1238402D+04 0.1862900D+03 0.4225118D+02 0.1167656D+02 0.3593051D+01
EXPONENTS  0.4024515D+00 0.1309018D+00 0.9468097D+01 0.2010355D+01 0.5477100D+00
EXPONENTS  0.9468097D+01 0.2010355D+01 0.5477100D+00 0.9468097D+01 0.2010355D+01
EXPONENTS  0.5477100D+00 0.1526861D+00 0.1526861D+00 0.1526861D+00 0.8000000D+00
EXPONENTS  0.8000000D+00 0.8000000D+00 0.8000000D+00 0.8000000D+00 0.8000000D+00
EXPONENTS  0.2266177D+04 0.3408701D+03 0.7736314D+02 0.2147964D+02 0.6658943D+01
EXPONENTS  0.8097598D+00 0.2553077D+00 0.1772150D+02 0.3863551D+01 0.1048092D+01
EXPONENTS  0.1772150D+02 0.3863551D+01 0.1048092D+01 0.1772150D+02 0.3863551D+01
EXPONENTS  0.1048092D+01 0.2764154D+00 0.2764154D+00 0.2764154D+00 0.1200000D+01
EXPONENTS  0.1200000D+01 0.1200000D+01 0.1200000D+01 0.1200000D+01 0.1200000D+01
EXPONENTS  0.1238402D+04 0.1862900D+03 0.4225118D+02 0.1167656D+02 0.3593051D+01
EXPONENTS  0.4024515D+00 0.1309018D+00 0.9468097D+01 0.2010355D+01 0.5477100D+00
EXPONENTS  0.9468097D+01 0.2010355D+01 0.5477100D+00 0.9468097D+01 0.2010355D+01
EXPONENTS  0.5477100D+00 0.1526861D+00 0.1526861D+00 0.1526861D+00 0.8000000D+00
EXPONENTS  0.8000000D+00 0.8000000D+00 0.8000000D+00 0.8000000D+00 0.8000000D+00
EXPONENTS  0.1238402D+04 0.1862900D+03 0.4225118D+02 0.1167656D+02 0.3593051D+01
EXPONENTS  0.4024515D+00 0.1309018D+00 0.9468097D+01 0.2010355D+01 0.5477100D+00
EXPONENTS  0.9468097D+01 0.2010355D+01 0.5477100D+00 0.9468097D+01 0.2010355D+01
EXPONENTS  0.5477100D+00 0.1526861D+00 0.1526861D+00 0.1526861D+00 0.8000000D+00
EXPONENTS  0.8000000D+00 0.8000000D+00 0.8000000D+00 0.8000000D+00 0.8000000D+00
EXPONENTS  0.1238402D+04 0.1862900D+03 0.4225118D+02 0.1167656D+02 0.3593051D+01
EXPONENTS  0.4024515D+00 0.1309018D+00 0.9468097D+01 0.2010355D+01 0.5477100D+00
EXPONENTS  0.9468097D+01 0.2010355D+01 0.5477100D+00 0.9468097D+01 0.2010355D+01
EXPONENTS  0.5477100D+00 0.1526861D+00 0.1526861D+00 0.1526861D+00 0.8000000D+00
EXPONENTS  0.8000000D+00 0.8000000D+00 0.8000000D+00 0.8000000D+00 0.8000000D+00
EXPONENTS  0.1238402D+04 0.1862900D+03 0.4225118D+02 0.1167656D+02 0.3593051D+01
EXPONENTS  0.4024515D+00 0.1309018D+00 0.9468097D+01 0.2010355D+01 0.5477100D+00
EXPONENTS  0.9468097D+01 0.2010355D+01 0.5477100D+00 0.9468097D+01 0.2010355D+01
EXPONENTS  0.5477100D+00 0.1526861D+00 0.1526861D+00 0.1526861D+00 0.8000000D+00
EXPONENTS  0.8000000D+00 0.8000000D+00 0.8000000D+00 0.8000000D+00 0.8000000D+00
EXPONENTS  0.1238402D+04 0.1862900D+03 0.4225118D+02 0.1167656D+02 0.3593051D+01
EXPONENTS  0.4024515D+00 0.1309018D+00 0.9468097D+01 0.2010355D+01 0.5477100D+00
EXPONENTS  0.9468097D+01 0.2010355D+01 0.5477100D+00 0.9468097D+01 0.2010355D+01
EXPONENTS  0.5477100D+00 0.1526861D+00 0.1526861D+00 0.1526861D+00 0.8000000D+00
EXPONENTS  0.8000000D+00 0.8000000D+00 0.8000000D+00 0.8000000D+00 0.8000000D+00
EXPONENTS  0.1238402D+04 0.1862900D+03 0.4225118D+02 0.1167656D+02 0.3593051D+01
EXPONENTS  0.4024515D+00 0.1309018D+00 0.9468097D+01 0.2010355D+01 0.5477100D+00
EXPONENTS  0.9468097D+01 0.2010355D+01 0.5477100D+00 0.9468097D+01 0.2010355D+01
EXPONENTS  0.5477100D+00 0.1526861D+00 0.1526861D+00 0.1526861D+00 0.8000000D+00
EXPONENTS  0.8000000D+00 0.8000000D+00 0.8000000D+00 0.8000000D+00 0.8000000D+00
EXPONENTS  0.1238402D+04 0.1862900D+03 0.4225118D+02 0.1167656D+02 0.3593051D+01
EXPONENTS  0.4024515D+00 0.1309018D+00 0.9468097D+01 0.2010355D+01 0.5477100D+00
EXPONENTS  0.9468097D+01 0.2010355D+01 0.5477100D+00 0.9468097D+01 0.2010355D+01
EXPONENTS  0.5477100D+00 0.1526861D+00 0.1526861D+00 0.1526861D+00 0.8000000D+00
EXPONENTS  0.8000000D+00 0.8000000D+00 0.8000000D+00 0.8000000D+00 0.8000000D+00
EXPONENTS  0.1238402D+04 0.1862900D+03 0.4225118D+02 0.1167656D+02 0.3593051D+01
EXPONENTS  0.4024515D+00 0.1309018D+00 0.9468097D+01 0.2010355D+01 0.5477100D+00
EXPONENTS  0.9468097D+01 0.2010355D+01 0.5477100D+00 0.9468097D+01 0.2010355D+01
EXPONENTS  0.5477100D+00 0.1526861D+00 0.1526861D+00 0.1526861D+00 0.8000000D+00
EXPONENTS  0.8000000D+00 0.8000000D+00 0.8000000D+00 0.8000000D+00 0.8000000D+00
EXPONENTS  0.2266177D+04 0.3408701D+03 0.7736314D+02 0.2147964D+02 0.6658943D+01
EXPONENTS  0.8097598D+00 0.2553077D+00 0.1772150D+02 0.3863551D+01 0.1048092D+01
EXPONENTS  0.1772150D+02 0.3863551D+01 0.1048092D+01 0.1772150D+02 0.3863551D+01
EXPONENTS  0.1048092D+01 0.2764154D+00 0.2764154D+00 0.2764154D+00 0.1200000D+01
EXPONENTS  0.1200000D+01 0.1200000D+01 0.1200000D+01 0.1200000D+01 0.1200000D+01
EXPONENTS  0.1238402D+04 0.1862900D+03 0.4225118D+02 0.1167656D+02 0.3593051D+01
EXPONENTS  0.4024515D+00 0.1309018D+00 0.9468097D+01 0.2010355D+01 0.5477100D+00
EXPONENTS  0.9468097D+01 0.2010355D+01 0.5477100D+00 0.9468097D+01 0.2010355D+01
EXPONENTS  0.5477100D+00 0.1526861D+00 0.1526861D+00 0.1526861D+00 0.8000000D+00
EXPONENTS  0.8000000D+00 0.8000000D+00 0.8000000D+00 0.8000000D+00 0.8000000D+00
EXPONENTS  0.2266177D+04 0.3408701D+03 0.7736314D+02 0.2147964D+02 0.6658943D+01
EXPONENTS  0.8097598D+00 0.2553077D+00 0.1772150D+02 0.3863551D+01 0.1048092D+01
EXPONENTS  0.1772150D+02 0.3863551D+01 0.1048092D+01 0.1772150D+02 0.3863551D+01
EXPONENTS  0.1048092D+01 0.2764154D+00 0.2764154D+00 0.2764154D+00 0.1200000D+01
EXPONENTS  0.1200000D+01 0.1200000D+01 0.1200000D+01 0.1200000D+01 0.1200000D+01
EXPONENTS  0.2266177D+04 0.3408701D+03 0.7736314D+02 0.2147964D+02 0.6658943D+01
EXPONENTS  0.8097598D+00 0.2553077D+00 0.1772150D+02 0.3863551D+01 0.1048092D+01
EXPONENTS  0.1772150D+02 0.3863551D+01 0.1048092D+01 0.1772150D+02 0.3863551D+01
EXPONENTS  0.1048092D+01 0.2764154D+00 0.2764154D+00 0.2764154D+00 0.1200000D+01
EXPONENTS  0.1200000D+01 0.1200000D+01 0.1200000D+01 0.1200000D+01 0.1200000D+01
EXPONENTS  0.1301070D+02 0.1962257D+01 0.4445380D+00 0.1219496D+00 0.8000000D+00
EXPONENTS  0.8000000D+00 0.8000000D+00 0.1301070D+02 0.1962257D+01 0.4445380D+00
EXPONENTS  0.1219496D+00 0.8000000D+00 0.8000000D+00 0.8000000D+00 0.1301070D+02
EXPONENTS  0.1962257D+01 0.4445380D+00 0.1219496D+00 0.8000000D+00 0.8000000D+00
EXPONENTS  0.8000000D+00 0.1301070D+02 0.1962257D+01 0.4445380D+00 0.1219496D+00
EXPONENTS  0.8000000D+00 0.8000000D+00 0.8000000D+00 0.1301070D+02 0.1962257D+01
EXPONENTS  0.4445380D+00 0.1219496D+00 0.8000000D+00 0.8000000D+00 0.8000000D+00
EXPONENTS  0.1301070D+02 0.1962257D+01 0.4445380D+00 0.1219496D+00 0.8000000D+00
EXPONENTS  0.8000000D+00 0.8000000D+00 0.1301070D+02 0.1962257D+01 0.4445380D+00
EXPONENTS  0.1219496D+00 0.8000000D+00 0.8000000D+00 0.8000000D+00 0.1301070D+02
EXPONENTS  0.1962257D+01 0.4445380D+00 0.1219496D+00 0.8000000D+00 0.8000000D+00
EXPONENTS  0.8000000D+00 0.1301070D+02 0.1962257D+01 0.4445380D+00 0.1219496D+00
EXPONENTS  0.8000000D+00 0.8000000D+00 0.8000000D+00 0.1301070D+02 0.1962257D+01
EXPONENTS  0.4445380D+00 0.1219496D+00 0.8000000D+00 0.8000000D+00 0.8000000D+00
EXPONENTS  0.1301070D+02 0.1962257D+01 0.4445380D+00 0.1219496D+00 0.8000000D+00
EXPONENTS  0.8000000D+00 0.8000000D+00 0.1301070D+02 0.1962257D+01 0.4445380D+00
EXPONENTS  0.1219496D+00 0.8000000D+00 0.8000000D+00 0.8000000D+00
MO    1     MO 0.0        OCC NO =    2.0000000  ORB. ENERGY =  -18.849397
  0.15325449D-05  0.27567752D-05  0.40187509D-05  0.39357848D-05  0.15478617D-05
 -0.39435043D-04 -0.18287913D-02 -0.17017603D-03 -0.13492721D-03 -0.64553555D-04
 -0.11105071D-03 -0.88048602D-04 -0.42125309D-04 -0.14148061D-04 -0.11217551D-04
 -0.53668405D-05  0.10499616D-02 -0.28047912D-03  0.14970315D-03 -0.40312033D-03
  0.32281442D-03  0.80305911D-04  0.52887123D-03 -0.15327941D-03  0.48856988D-04
 -0.40534683D-04 -0.72914669D-04 -0.10629300D-03 -0.10409860D-03 -0.40939801D-04
  0.27318090D-03  0.89905893D-03  0.11478549D-03  0.91009792D-04  0.43542038D-04
 -0.26406068D-03 -0.20936538D-03 -0.10016719D-03  0.28905995D-04  0.22918652D-04
  0.10965027D-04 -0.18765792D-04 -0.30767511D-04  0.13570804D-05 -0.33318739D-04
 -0.33394509D-04  0.66713248D-04  0.19754273D-03 -0.36126038D-04  0.34976830D-04
 -0.12136075D-04 -0.21830636D-04 -0.31824101D-04 -0.31167100D-04 -0.12257368D-04
  0.44906526D-04 -0.81870129D-03  0.63615291D-04  0.50438557D-04  0.24131443D-04
 -0.66341340D-04 -0.52599955D-04 -0.25165526D-04  0.11671981D-04  0.92543458D-05
  0.44275794D-05  0.29722681D-04  0.12471023D-03 -0.45174898D-05 -0.62524219D-04
  0.52936700D-04  0.95875191D-05 -0.54942851D-04 -0.15480797D-04 -0.12203115D-04
 -0.57591080D-04 -0.10359609D-03 -0.15101952D-03 -0.14790176D-03 -0.58166665D-04
  0.44732249D-03  0.13199043D-02  0.20580872D-03  0.16317924D-03  0.78070244D-04
 -0.46393413D-03 -0.36783874D-03 -0.17598599D-03  0.58002837D-04  0.45988619D-04
  0.22002448D-04  0.51796034D-03 -0.43258907D-04  0.75977610D-04  0.87721563D-04
 -0.20798139D-03  0.12025982D-03 -0.33968861D-03  0.17755278D-04 -0.14562807D-04
  0.17130956D-04  0.30815537D-04  0.44922042D-04  0.43994637D-04  0.17302169D-04
 -0.24269553D-03  0.36462069D-03  0.57991242D-03  0.45979426D-03  0.21998050D-03
  0.39011614D-03  0.30931078D-03  0.14798432D-03  0.79988037D-04  0.63419991D-04
  0.30342182D-04 -0.16659226D-02 -0.22879694D-02 -0.10363606D-03 -0.27099777D-03
  0.31408427D-03 -0.43086504D-04 -0.60537331D-03 -0.19861056D-04 -0.13553460D-03
  0.36917279D-04  0.66407605D-04  0.96807177D-04  0.94808617D-04  0.37286243D-04
 -0.11224776D-02  0.11220189D-02  0.82684004D-04  0.65557538D-04  0.31364854D-04
  0.60565963D-04  0.48020841D-04  0.22974729D-04 -0.34215276D-05 -0.27128213D-05
 -0.12979018D-05 -0.58270400D-03  0.30360255D-02 -0.23268101D-03 -0.26879416D-03
  0.65760486D-03 -0.38881070D-03 -0.16794303D-02  0.12258476D-03 -0.34748931D-03
  0.41164094D-04  0.74046868D-04  0.10794349D-03  0.10571502D-03  0.41575503D-04
 -0.30314962D-03 -0.42981473D-02 -0.32735345D-03 -0.25954822D-03 -0.12417629D-03
  0.11168558D-03  0.88551971D-04  0.42366137D-04 -0.49210913D-04 -0.39017781D-04
 -0.18667373D-04 -0.17268323D-02  0.34841895D-03 -0.22396067D-03  0.15624811D-03
 -0.23829968D-03  0.82051575D-04 -0.21413496D-03  0.60079848D-04 -0.77867172D-05
  0.67922881D-05  0.12218116D-04  0.17811233D-04  0.17443524D-04  0.68601727D-05
 -0.19186990D-03  0.65058315D-03  0.34893270D-03  0.27665772D-03  0.13236204D-03
 -0.64111567D-03 -0.50832039D-03 -0.24319697D-03  0.61245407D-04  0.48559551D-04
  0.23232465D-04 -0.32782792D-03  0.28562590D-02 -0.16661720D-03  0.72593876D-04
  0.13097212D-05 -0.73903597D-04  0.69911119D-03  0.25084580D-04  0.10602856D-03
  0.53191557D-04  0.95682129D-04  0.13948277D-03  0.13660319D-03  0.53723172D-04
 -0.10559550D-02  0.12527691D-02 -0.16373061D-04 -0.12981684D-04 -0.62108589D-05
 -0.13851298D-03 -0.10982257D-03 -0.52542684D-04  0.43963140D-05  0.34856986D-05
  0.16676714D-05 -0.16061373D-02 -0.25970044D-02 -0.10035476D-03  0.44844598D-03
 -0.13352124D-03 -0.31492474D-03  0.15588357D-02  0.14862522D-03  0.20387169D-03
 -0.12465640D+01 -0.22477628D+01 -0.33080973D+01 -0.32903470D+01 -0.13046607D+01
 -0.28544678D-01  0.12594639D-01  0.66825404D-02  0.52980387D-02  0.23074602D-02
 -0.17281798D-02 -0.13701321D-02 -0.59673502D-03  0.10278589D-02  0.81490512D-03
  0.35491645D-03 -0.21157390D-02  0.50911079D-03 -0.32421611D-03  0.20523762D-03
 -0.28494461D-04 -0.17674316D-03  0.34579346D-04  0.10649010D-03 -0.15749691D-04
 -0.34487752D-04 -0.62037319D-04 -0.90436296D-04 -0.88569260D-04 -0.34832435D-04
  0.20391807D-03  0.10832380D-02  0.22564970D-03  0.17891053D-03  0.85596603D-04
  0.15398336D-03  0.12208855D-03  0.58411124D-04  0.24320979D-04  0.19283337D-04
  0.92257745D-05 -0.16638195D-03  0.21510419D-03 -0.31377065D-04 -0.92305181D-04
  0.51309694D-04  0.40995487D-04 -0.76232334D-04 -0.33197647D-04 -0.11078533D-04
  0.44451872D-05  0.79960994D-05  0.11656494D-04  0.11415848D-04  0.44896140D-05
 -0.52017477D-04 -0.21483248D-02 -0.10850489D-03 -0.86030103D-04 -0.41159593D-04
  0.19791101D-03  0.15691740D-03  0.75074376D-04 -0.19160902D-04 -0.15192075D-04
 -0.72683817D-05  0.11705047D-02 -0.32276860D-03  0.16858322D-03 -0.48330109D-03
  0.39527229D-03  0.88028802D-04  0.23246815D-03 -0.16264070D-03  0.57870128D-05
  0.14922012D-02  0.26906878D-02  0.39599628D-02  0.39387146D-02  0.15617460D-02
  0.25582382D-03 -0.34573485D-03 -0.86143983D-04 -0.68296505D-04 -0.29745246D-04
 -0.18116287D-03 -0.14362920D-03 -0.62554969D-04 -0.16285007D-05 -0.12911047D-05
 -0.56231615D-06  0.11927355D-03  0.11408361D-03  0.91822077D-05 -0.67955571D-04
  0.64787399D-05  0.61476831D-04 -0.13769316D-03 -0.25700902D-04 -0.12250349D-04
 -0.21909712D-04 -0.39411666D-04 -0.57453242D-04 -0.56267134D-04 -0.22128685D-04
  0.19200127D-03 -0.73264607D-03  0.45973385D-03  0.36450846D-03  0.17439268D-03
 -0.88594182D-04 -0.70243532D-04 -0.33606786D-04  0.10050346D-03  0.79686022D-04
  0.38124379D-04 -0.88902960D-03  0.21497940D-03 -0.14056146D-03 -0.53090853D-04
 -0.24615200D-04  0.77706053D-04  0.43431316D-04 -0.92869628D-04  0.13007264D-04
  0.92758393D-05  0.16685581D-04  0.24323781D-04  0.23821623D-04  0.93685453D-05
 -0.71684134D-04 -0.40778110D-03 -0.10684715D-03 -0.84715735D-04 -0.40530757D-04
 -0.13138965D-04 -0.10417471D-04 -0.49840560D-05 -0.13606218D-03 -0.10787941D-03
 -0.51613013D-04  0.45760769D-03 -0.98292313D-04  0.34111007D-04  0.32394119D-04
  0.39746647D-05 -0.36368783D-04  0.18826144D-04  0.14566605D-03 -0.39559926D-04
 -0.87010153D-05 -0.15651576D-04 -0.22816436D-04 -0.22345396D-04 -0.87879763D-05
  0.48070975D-04  0.57800215D-03  0.34984539D-04  0.27738137D-04  0.13270825D-04
 -0.52008650D-08 -0.41236018D-08 -0.19728649D-08  0.30080392D-04  0.23849794D-04
  0.11410515D-04  0.20529522D-03 -0.52287972D-04  0.59789045D-04  0.93455862D-05
 -0.56149270D-05 -0.37306593D-05 -0.18210032D-04 -0.16235882D-04  0.22268915D-05
 -0.69672940D-05 -0.12532920D-04 -0.18270146D-04 -0.17892963D-04 -0.70369276D-05
  0.49297951D-04 -0.26352364D-03  0.43389545D-04  0.34402201D-04  0.16459130D-04
 -0.11177817D-04 -0.88625388D-05 -0.42401262D-05  0.17831179D-05  0.14137779D-05
  0.67639725D-06 -0.10856890D-03  0.20698233D-04 -0.86185620D-04  0.58886791D-05
  0.46775126D-05 -0.10566192D-04  0.22228401D-05  0.69558726D-05 -0.10592978D-04
 -0.15092464D-04 -0.27148653D-04 -0.39576559D-04 -0.38759511D-04 -0.15243304D-04
  0.83247400D-04  0.62158877D-03  0.95186095D-04  0.75470052D-04  0.36107322D-04
 -0.26378891D-04 -0.20914990D-04 -0.10006410D-04  0.26237978D-05  0.20803265D-05
  0.99529571D-06  0.16795463D-03 -0.46214089D-04 -0.94099686D-04  0.15155360D-04
 -0.12209319D-04 -0.29460407D-05 -0.11019268D-04 -0.22615356D-04  0.93845266D-05
  0.16454836D-04  0.29599318D-04  0.43149070D-04  0.42258268D-04  0.16619292D-04
 -0.12212826D-03 -0.11565098D-03 -0.20406715D-03 -0.16179840D-03 -0.77409608D-04
  0.56130648D-04  0.44504220D-04  0.21292263D-04 -0.69546742D-04 -0.55141417D-04
 -0.26381444D-04  0.40914430D-03 -0.60049798D-04  0.54105391D-03  0.36481692D-04
 -0.75300296D-05 -0.28951663D-04 -0.24457734D-04  0.22116066D-04 -0.11813982D-04
 -0.64054704D-04 -0.11522299D-03 -0.16796891D-03 -0.16450123D-03 -0.64694889D-04
  0.44258650D-03  0.15087253D-02  0.39648826D-03  0.31436303D-03  0.15040148D-03
  0.36076727D-03  0.28604099D-03  0.13685129D-03  0.24310457D-04  0.19274995D-04
  0.92217831D-05  0.59500877D-03 -0.11357533D-03  0.81524665D-04  0.16274681D-03
 -0.24460885D-03  0.81862047D-04  0.25377484D-04  0.10513284D-04  0.26218042D-04
 -0.10747471D-04 -0.19332785D-04 -0.28182801D-04 -0.27600974D-04 -0.10854885D-04
  0.49612619D-04 -0.10807793D-02  0.89405048D-04  0.70886442D-04  0.33914375D-04
  0.37175439D-04  0.29475233D-04  0.14101908D-04  0.14422658D-04  0.11435270D-04
  0.54710045D-05 -0.18459387D-03 -0.18714699D-03 -0.16809551D-04 -0.31610029D-04
  0.11012692D-04  0.20597338D-04  0.13130125D-03 -0.22345177D-04  0.14788211D-04
  0.11262055D-03  0.20307365D-03  0.29886934D-03  0.29726569D-03  0.11786929D-03
  0.16765802D-03 -0.20059235D-03 -0.14143507D-04 -0.11213227D-04 -0.48837083D-05
  0.36960559D-04  0.29302998D-04  0.12762365D-04 -0.48826422D-05 -0.38710468D-05
 -0.16859610D-05  0.64734541D-04 -0.75896674D-04  0.12135194D-04  0.13952826D-04
 -0.61298065D-04  0.47345239D-04  0.17821544D-03 -0.17264280D-04  0.32956779D-04
  0.10033014D-04  0.18047605D-04  0.26309301D-04  0.25766152D-04  0.10133288D-04
 -0.55244556D-04 -0.44026256D-03  0.15985910D-04  0.12674724D-04  0.60639993D-05
  0.15134205D-04  0.11999434D-04  0.57409187D-05  0.10990307D-03  0.87138679D-04
  0.41689972D-04  0.52044091D-04  0.12765635D-04  0.25512944D-03  0.26029241D-04
  0.84438960D-05 -0.34473137D-04 -0.18224008D-06  0.56012359D-04 -0.22044061D-05
 -0.15133790D-03 -0.27288749D-03 -0.40161638D-03 -0.39946142D-03 -0.15839108D-03
 -0.15391681D-04  0.28501594D-05  0.39348861D-04  0.31196487D-04  0.13587038D-04
 -0.80694924D-05 -0.63976392D-05 -0.27863703D-05  0.29538737D-04  0.23418844D-04
  0.10199633D-04 -0.28340797D-04  0.17511653D-05 -0.35772171D-04 -0.11296970D-04
  0.12794694D-04 -0.14977237D-05  0.10538545D-05 -0.31743242D-04  0.45991074D-05