 ***
GAUSSIAN             21 MOL ORBITALS    209 PRIMITIVES       17 NUCLEI
  C    1    (CENTRE  1)  -4.87985981  0.61152998 -0.00000043  CHARGE =  6.0
  C    2    (CENTRE  2)  -2.44715278 -0.98798242 -0.00000002  CHARGE =  6.0
  C    3    (CENTRE  3)   0.00000008  0.59781782  0.00000092  CHARGE =  6.0
  C    4    (CENTRE  4)   2.44715274 -0.98798244  0.00000024  CHARGE =  6.0
  C    5    (CENTRE  5)   4.87985983  0.61152997 -0.00000049  CHARGE =  6.0
  H    6    (CENTRE  6)  -6.59665370 -0.59158641 -0.00000117  CHARGE =  1.0
  H    7    (CENTRE  7)  -4.97921109  1.85243030 -1.68967513  CHARGE =  1.0
  H    8    (CENTRE  8)  -4.97921212  1.85242964  1.68967483  CHARGE =  1.0
  H    9    (CENTRE  9)  -2.44486576 -2.25977942 -1.67540786  CHARGE =  1.0
  H   10    (CENTRE 10)  -2.44486663 -2.25978006  1.67540709  CHARGE =  1.0
  H   11    (CENTRE 11)   0.00000006  1.87154777 -1.67637526  CHARGE =  1.0
  H   12    (CENTRE 12)  -0.00000003  1.87154655  1.67637834  CHARGE =  1.0
  H   13    (CENTRE 13)   2.44486665 -2.25977980  1.67540744  CHARGE =  1.0
  H   14    (CENTRE 14)   2.44486564 -2.25977967 -1.67540736  CHARGE =  1.0
  H   15    (CENTRE 15)   6.59665373 -0.59158646 -0.00000154  CHARGE =  1.0
  H   16    (CENTRE 16)   4.97921208  1.85242970  1.68967462  CHARGE =  1.0
  H   17    (CENTRE 17)   4.97921082  1.85243039 -1.68967538  CHARGE =  1.0
CENTRE ASSIGNMENTS    1  1  1  1  1  1  1  1  1  1  1  1  1  1  1  1  1  1  1  1
CENTRE ASSIGNMENTS    1  1  1  1  1  2  2  2  2  2  2  2  2  2  2  2  2  2  2  2
CENTRE ASSIGNMENTS    2  2  2  2  2  2  2  2  2  2  3  3  3  3  3  3  3  3  3  3
CENTRE ASSIGNMENTS    3  3  3  3  3  3  3  3  3  3  3  3  3  3  3  4  4  4  4  4
CENTRE ASSIGNMENTS    4  4  4  4  4  4  4  4  4  4  4  4  4  4  4  4  4  4  4  4
CENTRE ASSIGNMENTS    5  5  5  5  5  5  5  5  5  5  5  5  5  5  5  5  5  5  5  5
CENTRE ASSIGNMENTS    5  5  5  5  5  6  6  6  6  6  6  6  7  7  7  7  7  7  7  8
CENTRE ASSIGNMENTS    8  8  8  8  8  8  9  9  9  9  9  9  9 10 10 10 10 10 10 10
CENTRE ASSIGNMENTS   11 11 11 11 11 11 11 12 12 12 12 12 12 12 13 13 13 13 13 13
CENTRE ASSIGNMENTS   13 14 14 14 14 14 14 14 15 15 15 15 15 15 15 16 16 16 16 16
CENTRE ASSIGNMENTS   16 16 17 17 17 17 17 17 17
TYPE ASSIGNMENTS      1  1  1  1  1  1  1  2  2  2  3  3  3  4  4  4  2  3  4  5
TYPE ASSIGNMENTS      6  7  8  9 10  1  1  1  1  1  1  1  2  2  2  3  3  3  4  4
TYPE ASSIGNMENTS      4  2  3  4  5  6  7  8  9 10  1  1  1  1  1  1  1  2  2  2
TYPE ASSIGNMENTS      3  3  3  4  4  4  2  3  4  5  6  7  8  9 10  1  1  1  1  1
TYPE ASSIGNMENTS      1  1  2  2  2  3  3  3  4  4  4  2  3  4  5  6  7  8  9 10
TYPE ASSIGNMENTS      1  1  1  1  1  1  1  2  2  2  3  3  3  4  4  4  2  3  4  5
TYPE ASSIGNMENTS      6  7  8  9 10  1  1  1  1  2  3  4  1  1  1  1  2  3  4  1
TYPE ASSIGNMENTS      1  1  1  2  3  4  1  1  1  1  2  3  4  1  1  1  1  2  3  4
TYPE ASSIGNMENTS      1  1  1  1  2  3  4  1  1  1  1  2  3  4  1  1  1  1  2  3
TYPE ASSIGNMENTS      4  1  1  1  1  2  3  4  1  1  1  1  2  3  4  1  1  1  1  2
TYPE ASSIGNMENTS      3  4  1  1  1  1  2  3  4
EXPONENTS  0.1238402D+04 0.1862900D+03 0.4225118D+02 0.1167656D+02 0.3593051D+01
EXPONENTS  0.4024515D+00 0.1309018D+00 0.9468097D+01 0.2010355D+01 0.5477100D+00
EXPONENTS  0.9468097D+01 0.2010355D+01 0.5477100D+00 0.9468097D+01 0.2010355D+01
EXPONENTS  0.5477100D+00 0.1526861D+00 0.1526861D+00 0.1526861D+00 0.8000000D+00
EXPONENTS  0.8000000D+00 0.8000000D+00 0.8000000D+00 0.8000000D+00 0.8000000D+00
EXPONENTS  0.1238402D+04 0.1862900D+03 0.4225118D+02 0.1167656D+02 0.3593051D+01
EXPONENTS  0.4024515D+00 0.1309018D+00 0.9468097D+01 0.2010355D+01 0.5477100D+00
EXPONENTS  0.9468097D+01 0.2010355D+01 0.5477100D+00 0.9468097D+01 0.2010355D+01
EXPONENTS  0.5477100D+00 0.1526861D+00 0.1526861D+00 0.1526861D+00 0.8000000D+00
EXPONENTS  0.8000000D+00 0.8000000D+00 0.8000000D+00 0.8000000D+00 0.8000000D+00
EXPONENTS  0.1238402D+04 0.1862900D+03 0.4225118D+02 0.1167656D+02 0.3593051D+01
EXPONENTS  0.4024515D+00 0.1309018D+00 0.9468097D+01 0.2010355D+01 0.5477100D+00
EXPONENTS  0.9468097D+01 0.2010355D+01 0.5477100D+00 0.9468097D+01 0.2010355D+01
EXPONENTS  0.5477100D+00 0.1526861D+00 0.1526861D+00 0.1526861D+00 0.8000000D+00
EXPONENTS  0.8000000D+00 0.8000000D+00 0.8000000D+00 0.8000000D+00 0.8000000D+00
EXPONENTS  0.1238402D+04 0.1862900D+03 0.4225118D+02 0.1167656D+02 0.3593051D+01
EXPONENTS  0.4024515D+00 0.1309018D+00 0.9468097D+01 0.2010355D+01 0.5477100D+00
EXPONENTS  0.9468097D+01 0.2010355D+01 0.5477100D+00 0.9468097D+01 0.2010355D+01
EXPONENTS  0.5477100D+00 0.1526861D+00 0.1526861D+00 0.1526861D+00 0.8000000D+00
EXPONENTS  0.8000000D+00 0.8000000D+00 0.8000000D+00 0.8000000D+00 0.8000000D+00
EXPONENTS  0.1238402D+04 0.1862900D+03 0.4225118D+02 0.1167656D+02 0.3593051D+01
EXPONENTS  0.4024515D+00 0.1309018D+00 0.9468097D+01 0.2010355D+01 0.5477100D+00
EXPONENTS  0.9468097D+01 0.2010355D+01 0.5477100D+00 0.9468097D+01 0.2010355D+01
EXPONENTS  0.5477100D+00 0.1526861D+00 0.1526861D+00 0.1526861D+00 0.8000000D+00
EXPONENTS  0.8000000D+00 0.8000000D+00 0.8000000D+00 0.8000000D+00 0.8000000D+00
EXPONENTS  0.1301070D+02 0.1962257D+01 0.4445380D+00 0.1219496D+00 0.8000000D+00
EXPONENTS  0.8000000D+00 0.8000000D+00 0.1301070D+02 0.1962257D+01 0.4445380D+00
EXPONENTS  0.1219496D+00 0.8000000D+00 0.8000000D+00 0.8000000D+00 0.1301070D+02
EXPONENTS  0.1962257D+01 0.4445380D+00 0.1219496D+00 0.8000000D+00 0.8000000D+00
EXPONENTS  0.8000000D+00 0.1301070D+02 0.1962257D+01 0.4445380D+00 0.1219496D+00
EXPONENTS  0.8000000D+00 0.8000000D+00 0.8000000D+00 0.1301070D+02 0.1962257D+01
EXPONENTS  0.4445380D+00 0.1219496D+00 0.8000000D+00 0.8000000D+00 0.8000000D+00
EXPONENTS  0.1301070D+02 0.1962257D+01 0.4445380D+00 0.1219496D+00 0.8000000D+00
EXPONENTS  0.8000000D+00 0.8000000D+00 0.1301070D+02 0.1962257D+01 0.4445380D+00
EXPONENTS  0.1219496D+00 0.8000000D+00 0.8000000D+00 0.8000000D+00 0.1301070D+02
EXPONENTS  0.1962257D+01 0.4445380D+00 0.1219496D+00 0.8000000D+00 0.8000000D+00
EXPONENTS  0.8000000D+00 0.1301070D+02 0.1962257D+01 0.4445380D+00 0.1219496D+00
EXPONENTS  0.8000000D+00 0.8000000D+00 0.8000000D+00 0.1301070D+02 0.1962257D+01
EXPONENTS  0.4445380D+00 0.1219496D+00 0.8000000D+00 0.8000000D+00 0.8000000D+00
EXPONENTS  0.1301070D+02 0.1962257D+01 0.4445380D+00 0.1219496D+00 0.8000000D+00
EXPONENTS  0.8000000D+00 0.8000000D+00 0.1301070D+02 0.1962257D+01 0.4445380D+00
EXPONENTS  0.1219496D+00 0.8000000D+00 0.8000000D+00 0.8000000D+00
MO    1     MO 0.0        OCC NO =    2.0000000  ORB. ENERGY =   -9.918571
 -0.69611600D-02 -0.12521886D-01 -0.18254061D-01 -0.17877210D-01 -0.70307323D-02
 -0.66677467D-03  0.13907018D-02 -0.13612295D-02 -0.10792759D-02 -0.51636063D-03
  0.90755492D-03  0.71957166D-03  0.34426644D-03 -0.15414193D-09 -0.12221427D-09
 -0.58471273D-10  0.36931628D-03 -0.21187389D-03 -0.86656489D-11 -0.60759981D-03
 -0.44426771D-05  0.61204248D-03  0.17919055D-02 -0.39361137D-09  0.29353339D-09
  0.57402336D+00  0.10325657D+01  0.15052459D+01  0.14741704D+01  0.57976036D+00
  0.13841214D-01 -0.63692888D-02  0.27669973D-03  0.21938649D-03  0.10496162D-03
 -0.14015368D-02 -0.11112343D-02 -0.53165057D-03 -0.51197301D-11 -0.40592724D-11
 -0.19420877D-11 -0.24132685D-03 -0.19785400D-03  0.24398333D-10 -0.84149298D-03
  0.11262244D-03  0.72887054D-03  0.10508663D-03 -0.73438178D-09 -0.10179409D-08
 -0.26589017D-04 -0.47828902D-04 -0.69723657D-04 -0.68284229D-04 -0.26854757D-04
 -0.22189264D-05  0.56317000D-05  0.24290266D-02  0.19258985D-02  0.92141237D-03
  0.26083540D-05  0.20680816D-05  0.98943737D-06  0.93761117D-10  0.74340232D-10
  0.35566780D-10 -0.88196407D-03 -0.90240572D-06  0.47388966D-10 -0.16158266D-05
 -0.52618928D-07  0.16684455D-05 -0.33942606D-02 -0.19180576D-08 -0.11844415D-09
 -0.57231626D+00 -0.10294949D+01 -0.15007694D+01 -0.14697864D+01 -0.57803619D+00
 -0.13800692D-01  0.63494603D-02  0.27700314D-03  0.21962705D-03  0.10507671D-03
  0.13980681D-02  0.11084841D-02  0.53033476D-03 -0.22314928D-09 -0.17692802D-09
 -0.84648108D-10 -0.24133417D-03  0.19592841D-03 -0.20070542D-09  0.83902140D-03
 -0.11213709D-03 -0.72688431D-03  0.10564125D-03 -0.88206620D-09  0.99068388D-09
  0.69414236D-02  0.12486384D-01  0.18202307D-01  0.17826524D-01  0.70107987D-02
  0.66459562D-03 -0.13845939D-02 -0.13576020D-02 -0.10763998D-02 -0.51498460D-03
 -0.90489898D-03 -0.71746585D-03 -0.34325895D-03  0.35784604D-09  0.28372483D-09
  0.13574317D-09  0.36770992D-03  0.21099380D-03  0.10405866D-09  0.60596505D-03
  0.43236412D-05 -0.61028869D-03  0.17865248D-02 -0.84762848D-09 -0.45308155D-09
 -0.92843985D-06 -0.15750421D-05 -0.17931025D-05 -0.98261610D-04  0.11246525D-03
 -0.87339072D-04  0.88541205D-10 -0.14291864D-04 -0.24245283D-04 -0.27601979D-04
  0.73485774D-05  0.26639037D-03 -0.24282929D-03  0.46297019D-04 -0.14291845D-04
 -0.24245251D-04 -0.27601942D-04  0.73486301D-05  0.26639030D-03 -0.24282928D-03
 -0.46296917D-04 -0.28294630D-03 -0.48000130D-03 -0.54645622D-03  0.10935545D-02
  0.17090573D-03 -0.11832550D-02 -0.18257312D-02 -0.28294651D-03 -0.48000166D-03
 -0.54645663D-03  0.10935545D-02  0.17090487D-03 -0.11832560D-02  0.18257309D-02
 -0.57434794D-07 -0.97434658D-07 -0.11092423D-06 -0.67749834D-07 -0.63495782D-03
 -0.81540553D-06  0.12784507D-06 -0.57477082D-07 -0.97506397D-07 -0.11100590D-06
 -0.67852115D-07 -0.63495760D-03 -0.81529370D-06 -0.12788954D-06  0.28194432D-03
  0.47830150D-03  0.54452109D-03 -0.10909194D-02  0.17102601D-03  0.11799557D-02
 -0.18199001D-02  0.28194401D-03  0.47830098D-03  0.54452050D-03 -0.10909193D-02
  0.17102670D-03  0.11799552D-02  0.18199002D-02  0.81423348D-06  0.13812979D-05
  0.15725350D-05  0.97914544D-04  0.11227744D-03  0.87142784D-04 -0.22194782D-09
  0.14207491D-04  0.24102149D-04  0.27439029D-04 -0.75472841D-05  0.26561643D-03
  0.24214846D-03  0.46234698D-04  0.14207594D-04  0.24102324D-04  0.27439228D-04
 -0.75471384D-05  0.26561646D-03  0.24214830D-03 -0.46234812D-04
MO    2     MO 0.0        OCC NO =    2.0000000  ORB. ENERGY =   -9.918568
 -0.66269520D-02 -0.11920705D-01 -0.17377676D-01 -0.17018918D-01 -0.66931841D-02
 -0.73071677D-03  0.20483512D-02 -0.12155902D-02 -0.96380312D-03 -0.46111469D-03
  0.89016432D-03  0.70578321D-03  0.33766959D-03 -0.19626969D-09 -0.15561604D-09
 -0.74451767D-10  0.53867213D-03 -0.29513582D-03  0.10780013D-09 -0.54786174D-03
 -0.39941793D-04  0.58780353D-03  0.18035244D-02 -0.28922271D-09  0.38745299D-09
  0.57219387D+00  0.10292748D+01  0.15004484D+01  0.14694720D+01  0.57791258D+00
  0.13582180D-01 -0.66468538D-02 -0.10213230D-03 -0.80977475D-04 -0.38742252D-04
 -0.11623361D-02 -0.92157961D-03 -0.44091360D-03  0.21832738D-09  0.17310489D-09
  0.82818997D-10  0.27890360D-05 -0.64610567D-03 -0.47707803D-10 -0.82839663D-03
  0.16277912D-03  0.66561751D-03 -0.18616304D-03 -0.72583882D-09 -0.59803452D-09
 -0.17865526D-01 -0.32136896D-01 -0.46848283D-01 -0.45881111D-01 -0.18044080D-01
 -0.14901870D-02  0.37813161D-02 -0.36183401D-05 -0.28688677D-05 -0.13725594D-05
  0.17513369D-02  0.13885798D-02  0.66434163D-03  0.11385707D-08  0.90273681D-09
  0.43189859D-09  0.13136556D-05 -0.60589644D-03 -0.65809462D-09 -0.10847851D-02
 -0.35373423D-04  0.11201585D-02  0.50559390D-05 -0.34252243D-09 -0.10624561D-08
  0.57390133D+00  0.10323462D+01  0.15049259D+01  0.14738570D+01  0.57963711D+00
  0.13623352D-01 -0.66657986D-02  0.10130730D-03  0.80323360D-04  0.38429302D-04
 -0.11665062D-02 -0.92488599D-03 -0.44249548D-03  0.46289893D-09  0.36701795D-09
  0.17559330D-09 -0.20701126D-05 -0.64669220D-03  0.17140283D-09 -0.83089975D-03
  0.16311402D-03  0.66778573D-03  0.18584880D-03  0.94682689D-09 -0.66003660D-09
 -0.66476969D-02 -0.11958022D-01 -0.17432075D-01 -0.17072194D-01 -0.67141364D-02
 -0.73270063D-03  0.20524852D-02  0.12196397D-02  0.96701383D-03  0.46265080D-03
  0.89286382D-03  0.70792355D-03  0.33869360D-03 -0.44790531D-09 -0.35512999D-09
 -0.16990571D-09 -0.53976993D-03 -0.29576568D-03  0.77400625D-10 -0.54966936D-03
 -0.39954803D-04  0.58962416D-03 -0.18088543D-02  0.70392455D-09  0.58738379D-09
 -0.38331949D-04 -0.65027835D-04 -0.74030768D-04 -0.11638542D-03  0.62901629D-04
 -0.65733302D-04 -0.11636681D-10 -0.28270856D-04 -0.47959799D-04 -0.54599707D-04
 -0.66684886D-04  0.25941133D-03 -0.22823115D-03  0.20843506D-04 -0.28270875D-04
 -0.47959831D-04 -0.54599744D-04 -0.66684877D-04  0.25941136D-03 -0.22823109D-03
 -0.20843418D-04 -0.33602874D-03 -0.57005246D-03 -0.64897472D-03  0.88298253D-03
 -0.40894926D-04 -0.11060247D-02 -0.19546211D-02 -0.33602893D-03 -0.57005278D-03
 -0.64897509D-03  0.88298267D-03 -0.40896038D-04 -0.11060256D-02  0.19546206D-02
 -0.38560207D-04 -0.65415060D-04 -0.74471604D-04 -0.45560825D-04  0.94569335D-06
 -0.54743555D-03  0.85923863D-04 -0.38560172D-04 -0.65415002D-04 -0.74471537D-04
 -0.45560441D-04  0.94581136D-06 -0.54743538D-03 -0.85924461D-04 -0.33687044D-03
 -0.57148034D-03 -0.65060030D-03  0.88623648D-03  0.40386860D-04 -0.11095454D-02
  0.19600510D-02 -0.33687015D-03 -0.57147985D-03 -0.65059974D-03  0.88623641D-03
  0.40385477D-04 -0.11095449D-02 -0.19600511D-02 -0.38334522D-04 -0.65032200D-04
 -0.74035737D-04 -0.11667768D-03 -0.63236476D-04 -0.65993107D-04  0.59196859D-10
 -0.28313280D-04 -0.48031768D-04 -0.54681640D-04 -0.66662689D-04 -0.26020389D-03
 -0.22895363D-03 -0.20981312D-04 -0.28313307D-04 -0.48031815D-04 -0.54681694D-04
 -0.66662809D-04 -0.26020374D-03 -0.22895352D-03  0.20981371D-04
MO    3     MO 0.0        OCC NO =    2.0000000  ORB. ENERGY =   -9.915981
 -0.56944270D-02 -0.10243259D-01 -0.14932341D-01 -0.14624067D-01 -0.57513392D-02
 -0.40899794D-03  0.34084394D-03 -0.19756670D-03 -0.15664440D-03 -0.74943767D-04
 -0.69343976D-04 -0.54980651D-04 -0.26304528D-04 -0.32357408D-10 -0.25655168D-10
 -0.12274265D-10  0.10086071D-03  0.20451886D-03  0.73108683D-10  0.33914202D-04
 -0.11705358D-06 -0.33797149D-04  0.30658040D-03  0.15430945D-09 -0.66518214D-10
  0.13195530D-01  0.23736406D-01  0.34602279D-01  0.33887923D-01  0.13327411D-01
 -0.39625082D-03  0.20500101D-02 -0.17903178D-02 -0.14194865D-02 -0.67912842D-03
 -0.12612463D-02 -0.10000024D-02 -0.47843361D-03 -0.71308030D-09 -0.56537888D-09
 -0.27049560D-09  0.60620364D-03  0.30480911D-03 -0.14864700D-10 -0.85002836D-03
  0.51551934D-05  0.84487316D-03 -0.24893287D-02 -0.15645459D-08 -0.91972294D-09
  0.81042155D+00  0.14578039D+01  0.21251464D+01  0.20812733D+01  0.81852119D+00
  0.19385959D-01 -0.89204712D-02  0.13221703D-09  0.10483071D-09  0.50154415D-10
  0.19607991D-02  0.15546558D-02  0.74379777D-03 -0.41293775D-09 -0.32740532D-09
 -0.15664133D-09  0.99996363D-11  0.46593281D-03  0.75284749D-09 -0.11910171D-02
  0.17903737D-03  0.10119797D-02 -0.73283964D-09 -0.28522188D-11 -0.96944013D-09
  0.13195559D-01  0.23736459D-01  0.34602357D-01  0.33887999D-01  0.13327440D-01
 -0.39625031D-03  0.20500098D-02  0.17903186D-02  0.14194871D-02  0.67912870D-03
 -0.12612467D-02 -0.10000028D-02 -0.47843377D-03 -0.48563219D-09 -0.38504244D-09
 -0.18421680D-09 -0.60620370D-03  0.30480908D-03 -0.15353811D-09 -0.85002830D-03
  0.51551385D-05  0.84487317D-03  0.24893290D-02  0.11265530D-08 -0.63775892D-09
 -0.56944838D-02 -0.10243361D-01 -0.14932490D-01 -0.14624212D-01 -0.57513965D-02
 -0.40899935D-03  0.34084461D-03  0.19756665D-03  0.15664436D-03  0.74943748D-04
 -0.69344074D-04 -0.54980729D-04 -0.26304565D-04 -0.14526422D-10 -0.11517542D-10
 -0.55103659D-11 -0.10086086D-03  0.20451885D-03  0.91312446D-10  0.33914298D-04
 -0.11711493D-06 -0.33797183D-04 -0.30658037D-03 -0.13098182D-09 -0.14025048D-09
  0.32014186D-04  0.54310133D-04  0.61829228D-04  0.64971548D-04  0.53287178D-04
 -0.45363592D-04 -0.18185605D-10 -0.42166590D-04 -0.71533071D-04 -0.81436637D-04
 -0.18570407D-03 -0.11220523D-03 -0.58037784D-04 -0.64468973D-04 -0.42166596D-04
 -0.71533081D-04 -0.81436649D-04 -0.18570391D-03 -0.11220509D-03 -0.58037854D-04
  0.64468808D-04 -0.39397680D-04 -0.66835784D-04 -0.76089023D-04  0.91871184D-05
  0.45924083D-03  0.34158931D-03 -0.52405043D-04 -0.39397610D-04 -0.66835664D-04
 -0.76088887D-04  0.91873401D-05  0.45924074D-03  0.34158943D-03  0.52405287D-04
 -0.43083472D-03 -0.73088506D-03 -0.83207418D-03  0.14285332D-02  0.67927897D-10
  0.16138210D-02 -0.26368125D-02 -0.43083462D-03 -0.73088490D-03 -0.83207400D-03
  0.14285325D-02 -0.11841332D-09  0.16138190D-02  0.26368138D-02 -0.39397588D-04
 -0.66835628D-04 -0.76088845D-04  0.91874429D-05 -0.45924078D-03  0.34158948D-03
  0.52405220D-04 -0.39397670D-04 -0.66835766D-04 -0.76089002D-04  0.91871178D-05
 -0.45924095D-03  0.34158936D-03 -0.52405180D-04  0.32014240D-04  0.54310223D-04
  0.61829331D-04  0.64971473D-04 -0.53287331D-04 -0.45363447D-04  0.14775312D-10
 -0.42166574D-04 -0.71533044D-04 -0.81436606D-04 -0.18570400D-03  0.11220505D-03
 -0.58038022D-04  0.64468588D-04 -0.42166569D-04 -0.71533037D-04 -0.81436598D-04
 -0.18570412D-03  0.11220513D-03 -0.58037927D-04 -0.64468802D-04
MO    4     MO 0.0        OCC NO =    2.0000000  ORB. ENERGY =   -9.915168
 -0.57293183D+00 -0.10306022D+01 -0.15023836D+01 -0.14713672D+01 -0.57865792D+00
 -0.13686258D-01  0.48657317D-02  0.80009814D-03  0.63437257D-03  0.30350443D-03
 -0.78971041D-03 -0.62613647D-03 -0.29956401D-03  0.31793716D-09  0.25208234D-09
  0.12060437D-09  0.31344962D-03  0.78967751D-04 -0.24731275D-10  0.28451226D-03
 -0.14768785D-04 -0.26974348D-03 -0.99188549D-03  0.68091715D-10  0.31086770D-10
 -0.73983833D-02 -0.13308373D-01 -0.19400580D-01 -0.19000059D-01 -0.74723254D-02
  0.12601884D-03 -0.92873358D-04 -0.10514871D-02 -0.83369091D-03 -0.39886479D-03
  0.84817499D-03  0.67249119D-03  0.32174161D-03 -0.25202490D-09 -0.19982259D-09
 -0.95601614D-10  0.37048568D-03  0.92173003D-04  0.32285193D-09  0.74103889D-03
 -0.42654558D-04 -0.69838433D-03 -0.15909035D-02  0.63011733D-09 -0.27214655D-09
  0.27880151D-05  0.50151422D-05  0.73109362D-05  0.71600037D-05  0.28158795D-05
 -0.11013200D-06  0.17756883D-06 -0.84665847D-03 -0.67128879D-03 -0.32116634D-03
 -0.85622172D-07 -0.67887119D-07 -0.32479401D-07  0.32253125D-10  0.25572485D-10
  0.12234707D-10  0.10314986D-02  0.13888835D-06 -0.80843457D-11  0.45387337D-07
 -0.13976646D-07 -0.31410692D-07  0.11484298D-03 -0.23902616D-09 -0.57377075D-10
  0.74034216D-02  0.13317436D-01  0.19413791D-01  0.19012998D-01  0.74774140D-02
 -0.12618710D-03  0.93716533D-04 -0.10524716D-02 -0.83447149D-03 -0.39923825D-03
 -0.84875960D-03 -0.67295471D-03 -0.32196338D-03  0.39402121D-09  0.31240698D-09
  0.14946564D-09  0.37066951D-03 -0.92068577D-04 -0.27616785D-09 -0.74153258D-03
  0.42696325D-04  0.69883626D-03 -0.15920657D-02  0.96668466D-09  0.50668363D-09
  0.57332905D+00  0.10313168D+01  0.15034252D+01  0.14723873D+01  0.57905910D+00
  0.13695677D-01 -0.48692984D-02  0.80081818D-03  0.63494347D-03  0.30377756D-03
  0.79027115D-03  0.62658106D-03  0.29977672D-03  0.91371345D-10  0.72445456D-10
  0.34660258D-10  0.31364006D-03 -0.78945112D-04 -0.80751227D-10 -0.28472634D-03
  0.14785889D-04  0.26994046D-03 -0.99256914D-03 -0.22188988D-09  0.89597086D-09
  0.44656071D-03  0.75756326D-03  0.86244590D-03 -0.69252064D-03  0.18215152D-02
  0.14903409D-02  0.92554985D-09  0.33365515D-03  0.56602579D-03  0.64439058D-03
 -0.89077550D-03 -0.21943463D-03 -0.12816102D-02  0.17692684D-02  0.33365510D-03
  0.56602571D-03  0.64439048D-03 -0.89077526D-03 -0.21943361D-03 -0.12816095D-02
 -0.17692691D-02  0.12339848D-04  0.20933807D-04  0.23832037D-04 -0.10125679D-03
  0.31726675D-03 -0.30505571D-03  0.70506994D-04  0.12339758D-04  0.20933654D-04
  0.23831863D-04 -0.10125685D-03  0.31726686D-03 -0.30505575D-03 -0.70506956D-04
 -0.42708778D-07 -0.72452861D-07 -0.82483770D-07 -0.70380051D-07 -0.42665053D-03
 -0.55063066D-07 -0.56880897D-07 -0.42688589D-07 -0.72418612D-07 -0.82444779D-07
 -0.70393544D-07 -0.42665131D-03 -0.55073853D-07  0.56887568D-07 -0.12356261D-04
 -0.20961650D-04 -0.23863735D-04  0.10125027D-03  0.31744858D-03  0.30521019D-03
  0.70548165D-04 -0.12356342D-04 -0.20961788D-04 -0.23863892D-04  0.10125022D-03
  0.31744847D-03  0.30521014D-03 -0.70548340D-04 -0.44684233D-03 -0.75804100D-03
 -0.86298979D-03  0.69307450D-03  0.18227249D-02 -0.14913500D-02 -0.11731687D-08
 -0.33389928D-03 -0.56643995D-03 -0.64486208D-03  0.89140656D-03 -0.21953694D-03
  0.12824777D-02  0.17705012D-02 -0.33389912D-03 -0.56643968D-03 -0.64486176D-03
  0.89140643D-03 -0.21953829D-03  0.12824782D-02 -0.17705006D-02
MO    5     MO 0.0        OCC NO =    2.0000000  ORB. ENERGY =   -9.915156
  0.57332813D+00  0.10313151D+01  0.15034228D+01  0.14723850D+01  0.57905818D+00
  0.13595662D-01 -0.51480384D-02 -0.10396982D-02 -0.82434391D-03 -0.39439288D-03
  0.80929236D-03  0.64166238D-03  0.30699211D-03 -0.33637860D-09 -0.26670398D-09
 -0.12759984D-09 -0.27472937D-03  0.32690594D-04 -0.15076502D-09 -0.30885759D-03
  0.24424500D-04  0.28443309D-03  0.98563530D-03 -0.23631747D-09 -0.23864186D-10
  0.72165650D-02  0.12981314D-01  0.18923802D-01  0.18533125D-01  0.72886899D-02
 -0.24400289D-03  0.12168931D-02  0.14213833D-02  0.11269700D-02  0.53917902D-03
 -0.84365590D-03 -0.66890815D-03 -0.32002737D-03  0.60873466D-10  0.48264651D-10
  0.23091375D-10 -0.26542540D-03  0.15063606D-03  0.14463519D-09 -0.71247886D-03
  0.60274231D-04  0.65220463D-03  0.16779688D-02 -0.43855550D-09  0.16095428D-09
  0.79320510D-02  0.14268346D-01  0.20800002D-01  0.20370591D-01  0.80113268D-02
 -0.32036534D-03  0.51297851D-03  0.29339943D-06  0.23262715D-06  0.11129638D-06
 -0.24751528D-03 -0.19624705D-03 -0.93890960D-04  0.19196666D-09  0.15220431D-09
  0.72819482D-10 -0.35749022D-06  0.40078177D-03 -0.87896987D-10  0.13117700D-03
 -0.40352149D-04 -0.90824851D-04 -0.39624258D-07 -0.55073855D-11 -0.14817105D-09
  0.72114721D-02  0.12972153D-01  0.18910447D-01  0.18520046D-01  0.72835461D-02
 -0.24391458D-03  0.12168283D-02 -0.14206541D-02 -0.11263918D-02 -0.53890241D-03
 -0.84306781D-03 -0.66844187D-03 -0.31980429D-03  0.28690512D-09  0.22747802D-09
  0.10883287D-09  0.26516862D-03  0.15069998D-03  0.24143874D-10 -0.71196511D-03
  0.60244675D-04  0.65172044D-03 -0.16768657D-02  0.80374290D-09  0.43108056D-09
  0.57293091D+00  0.10306006D+01  0.15023812D+01  0.14713649D+01  0.57865698D+00
  0.13586173D-01 -0.51446648D-02  0.10391431D-02  0.82390379D-03  0.39418231D-03
  0.80874488D-03  0.64122830D-03  0.30678443D-03  0.48733499D-10  0.38639254D-10
  0.18486273D-10  0.27451218D-03  0.32745311D-04 -0.18585857D-09 -0.30866041D-03
  0.24414422D-04  0.28424599D-03 -0.98494839D-03 -0.68451976D-10  0.88754969D-09
 -0.40647129D-03 -0.68955398D-03 -0.78502092D-03  0.79942257D-03 -0.17459689D-02
 -0.14565534D-02 -0.74539613D-09 -0.35238098D-03 -0.59779304D-03 -0.68055592D-03
  0.91098733D-03  0.14919905D-03  0.12530123D-02 -0.17784999D-02 -0.35238088D-03
 -0.59779286D-03 -0.68055571D-03  0.91098729D-03  0.14919792D-03  0.12530115D-02
  0.17785005D-02 -0.23755814D-04 -0.40300302D-04 -0.45879773D-04 -0.95358172D-05
 -0.26237858D-03  0.22301310D-03 -0.59405534D-04 -0.23755906D-04 -0.40300459D-04
 -0.45879952D-04 -0.95359187D-05 -0.26237846D-03  0.22301296D-03  0.59405388D-04
 -0.12317568D-03 -0.20896010D-03 -0.23789008D-03 -0.20320513D-03  0.14791844D-06
 -0.15910903D-03 -0.16379092D-03 -0.12317561D-03 -0.20895998D-03 -0.23788994D-03
 -0.20320510D-03  0.14782071D-06 -0.15910911D-03  0.16379109D-03 -0.23747357D-04
 -0.40285956D-04 -0.45863441D-04 -0.96059947D-05  0.26215848D-03  0.22280141D-03
  0.59356547D-04 -0.23747295D-04 -0.40285851D-04 -0.45863322D-04 -0.96059779D-05
  0.26215855D-03  0.22280146D-03 -0.59356796D-04 -0.40616170D-03 -0.68902878D-03
 -0.78442301D-03  0.79894239D-03  0.17447060D-02 -0.14555201D-02 -0.10073546D-08
 -0.35214960D-03 -0.59740051D-03 -0.68010904D-03  0.91036979D-03 -0.14904578D-03
  0.12521230D-02  0.17772738D-02 -0.35214947D-03 -0.59740029D-03 -0.68010879D-03
  0.91036955D-03 -0.14904727D-03  0.12521237D-02 -0.17772732D-02
MO    6     MO 0.0        OCC NO =    2.0000000  ORB. ENERGY =   -0.703727
 -0.66992973D-01 -0.12050842D+00 -0.17567385D+00 -0.17204711D+00 -0.67662525D-01
  0.56228943D-01  0.75377325D-02  0.52548032D-01  0.41663677D-01  0.19933255D-01
 -0.26048268D-01 -0.20652850D-01 -0.98809938D-02  0.74161412D-08  0.58800244D-08
  0.28131945D-08  0.29160868D-02 -0.11332560D-02  0.11379549D-08  0.36785687D-02
 -0.67914451D-03 -0.29994242D-02 -0.77131914D-02  0.22644900D-08 -0.15092338D-08
 -0.11167170D+00 -0.20087748D+00 -0.29283365D+00 -0.28678817D+00 -0.11278778D+00
  0.96729820D-01  0.84517599D-02  0.31850242D-01  0.25253052D-01  0.12081880D-01
  0.49235001D-01  0.39036879D-01  0.18676510D-01  0.14855537D-07  0.11778487D-07
  0.56352105D-08  0.17332265D-02  0.19962635D-02 -0.40949744D-09  0.63257206D-02
 -0.61156313D-03 -0.57141575D-02  0.32789095D-02  0.58656351D-08  0.19444422D-08
 -0.12874139D+00 -0.23158282D+00 -0.33759505D+00 -0.33062548D+00 -0.13002808D+00
  0.11175369D+00  0.10308139D-01  0.22467242D-07  0.17813567D-07  0.85225888D-08
 -0.55114556D-01 -0.43698593D-01 -0.20906825D-01 -0.47384785D-07 -0.37569901D-07
 -0.17974660D-07  0.84439074D-09 -0.28421866D-02  0.13319908D-09  0.73512001D-02
 -0.76709284D-03 -0.65841072D-02 -0.33164456D-08  0.15103257D-08  0.58926707D-08
 -0.11167172D+00 -0.20087752D+00 -0.29283371D+00 -0.28678823D+00 -0.11278781D+00
  0.96729840D-01  0.84517586D-02 -0.31850254D-01 -0.25253062D-01 -0.12081884D-01
  0.49235011D-01  0.39036887D-01  0.18676514D-01  0.66015836D-08  0.52341874D-08
  0.25042051D-08 -0.17332254D-02  0.19962642D-02 -0.67619546D-09  0.63257210D-02
 -0.61156255D-03 -0.57141584D-02 -0.32789110D-02 -0.51153582D-08  0.68636459D-09
 -0.66992981D-01 -0.12050843D+00 -0.17567387D+00 -0.17204713D+00 -0.67662533D-01
  0.56228950D-01  0.75377337D-02 -0.52548045D-01 -0.41663687D-01 -0.19933260D-01
 -0.26048270D-01 -0.20652852D-01 -0.98809947D-02  0.17043143D-07  0.13512970D-07
  0.64650436D-08 -0.29160869D-02 -0.11332560D-02  0.15052750D-08  0.36785697D-02
 -0.67914479D-03 -0.29994249D-02  0.77131922D-02 -0.41587926D-08 -0.25114827D-08
  0.65808180D-02  0.11163960D-01  0.12709581D-01  0.16885309D-02  0.56133200D-02
  0.34293931D-02  0.20246729D-08  0.69989171D-02  0.11873240D-01  0.13517059D-01
  0.93075534D-03  0.52130143D-03 -0.38450630D-02  0.49163646D-02  0.69989159D-02
  0.11873238D-01  0.13517057D-01  0.93075503D-03  0.52130414D-03 -0.38450602D-02
 -0.49163654D-02  0.11788710D-01  0.19998834D-01  0.22767620D-01  0.18669387D-02
  0.40592049D-03  0.62107525D-02  0.79897738D-02  0.11788712D-01  0.19998837D-01
  0.22767623D-01  0.18669396D-02  0.40592375D-03  0.62107575D-02 -0.79897722D-02
  0.13739010D-01  0.23307400D-01  0.26534248D-01  0.21589098D-02  0.14590280D-09
 -0.70149985D-02  0.93038672D-02  0.13739004D-01  0.23307390D-01  0.26534237D-01
  0.21589086D-02  0.91628029D-09 -0.70149872D-02 -0.93038708D-02  0.11788715D-01
  0.19998843D-01  0.22767630D-01  0.18669406D-02 -0.40592447D-03  0.62107585D-02
 -0.79897759D-02  0.11788713D-01  0.19998839D-01  0.22767626D-01  0.18669397D-02
 -0.40592101D-03  0.62107554D-02  0.79897753D-02  0.65808184D-02  0.11163961D-01
  0.12709582D-01  0.16885308D-02 -0.56133203D-02  0.34293932D-02  0.30260421D-08
  0.69989176D-02  0.11873241D-01  0.13517060D-01  0.93075511D-03 -0.52130471D-03
 -0.38450615D-02 -0.49163661D-02  0.69989167D-02  0.11873239D-01  0.13517058D-01
  0.93075521D-03 -0.52130095D-03 -0.38450623D-02  0.49163640D-02
MO    7     MO 0.0        OCC NO =    2.0000000  ORB. ENERGY =   -0.657722
 -0.11399593D+00 -0.20505836D+00 -0.29892843D+00 -0.29275712D+00 -0.11513525D+00
  0.10030186D+00  0.35038874D-02  0.52659576D-01  0.41752117D-01  0.19975568D-01
 -0.33327324D-01 -0.26424184D-01 -0.12642187D-01  0.61860034D-08  0.49046869D-08
  0.23465614D-08  0.16394392D-04 -0.64221853D-03  0.17198670D-09  0.31405160D-02
 -0.17841521D-03 -0.29621008D-02 -0.79241652D-02  0.22305572D-08 -0.14797073D-08
 -0.10584537D+00 -0.19039696D+00 -0.27755545D+00 -0.27182538D+00 -0.10690323D+00
  0.94458460D-01  0.88499146D-02 -0.62407588D-01 -0.49481007D-01 -0.23673320D-01
  0.39920694D-01  0.31651859D-01  0.15143276D-01 -0.24014078D-08 -0.19040005D-08
 -0.91093564D-09 -0.62569033D-02  0.33369497D-02 -0.16141874D-08  0.36106430D-02
  0.33289563D-03 -0.39435386D-02 -0.82080340D-02  0.38090619D-08 -0.10738728D-08
  0.33832108D-08  0.60857932D-08  0.88717018D-08  0.86885477D-08  0.34170238D-08
 -0.29835046D-08 -0.10768223D-08 -0.12419930D+00 -0.98473709D-01 -0.47113018D-01
  0.66185540D-08  0.52476427D-08  0.25106426D-08 -0.55295983D-08 -0.43842440D-08
 -0.20975646D-08 -0.65109499D-02  0.34799844D-09 -0.73203630D-09 -0.15405280D-09
 -0.23729986D-09  0.39135267D-09  0.13703395D-01  0.80088772D-08  0.66515764D-09
  0.10584536D+00  0.19039694D+00  0.27755541D+00  0.27182535D+00  0.10690322D+00
 -0.94458448D-01 -0.88499095D-02 -0.62407558D-01 -0.49480984D-01 -0.23673309D-01
 -0.39920684D-01 -0.31651851D-01 -0.15143273D-01  0.56349125D-08  0.44677443D-08
  0.21375139D-08 -0.62569026D-02 -0.33369491D-02  0.22571263D-08 -0.36106414D-02
 -0.33289614D-03  0.39435375D-02 -0.82080306D-02  0.49033864D-08  0.22108872D-08
  0.11399590D+00  0.20505830D+00  0.29892834D+00  0.29275704D+00  0.11513521D+00
 -0.10030183D+00 -0.35038882D-02  0.52659576D-01  0.41752116D-01  0.19975568D-01
  0.33327315D-01  0.26424177D-01  0.12642184D-01 -0.22897691D-07 -0.18154856D-07
 -0.86858726D-08  0.16393999D-04  0.64221856D-03  0.25380134D-09 -0.31405158D-02
  0.17841532D-03  0.29621005D-02 -0.79241631D-02  0.46628585D-08  0.24692627D-08
  0.13353410D-01  0.22653253D-01  0.25789537D-01  0.26055658D-02  0.93785649D-02
  0.57329077D-02  0.37430266D-08  0.13590130D-01  0.23054835D-01  0.26246716D-01
  0.29778963D-02  0.13130798D-02 -0.66624628D-02  0.87494459D-02  0.13590129D-01
  0.23054833D-01  0.26246714D-01  0.29778956D-02  0.13130849D-02 -0.66624582D-02
 -0.87494471D-02  0.12278016D-01  0.20828913D-01  0.23712621D-01  0.26268914D-02
  0.52808168D-04  0.55584481D-02  0.81943593D-02  0.12278019D-01  0.20828918D-01
  0.23712627D-01  0.26268923D-02  0.52813913D-04  0.55584533D-02 -0.81943582D-02
  0.98581670D-10  0.16723785D-09  0.19039149D-09 -0.27604658D-09 -0.14260255D-02