 ****
GAUSSIAN             34 MOL ORBITALS    306 PRIMITIVES       18 NUCLEI
  C    1    (CENTRE  1)  -2.32481880 -2.66335789 -0.00000028  CHARGE =  6.0
  C    2    (CENTRE  2)  -4.62157183 -1.32805643 -0.00000028  CHARGE =  6.0
  C    3    (CENTRE  3)  -4.62156942  1.32804812 -0.00000028  CHARGE =  6.0
  C    4    (CENTRE  4)  -2.32481398  2.66336432 -0.00000028  CHARGE =  6.0
  C    5    (CENTRE  5)   0.00000150  1.34807504 -0.00000028  CHARGE =  6.0
  C    6    (CENTRE  6)  -0.00000094 -1.34807281 -0.00000028  CHARGE =  6.0
  C    7    (CENTRE  7)   2.32481454 -2.66336209 -0.00000028  CHARGE =  6.0
  C    8    (CENTRE  8)   2.32481935  2.66336011 -0.00000028  CHARGE =  6.0
  C    9    (CENTRE  9)   4.62157238  1.32803976 -0.00000028  CHARGE =  6.0
  C   10    (CENTRE 10)   4.62156998 -1.32804590 -0.00000028  CHARGE =  6.0
  H   11    (CENTRE 11)  -2.36862440 -4.59741695  0.00001862  CHARGE =  1.0
  H   12    (CENTRE 12)  -6.29437716 -2.29332703 -0.00000028  CHARGE =  1.0
  H   13    (CENTRE 13)  -6.29435412  2.29334064 -0.00000028  CHARGE =  1.0
  H   14    (CENTRE 14)  -2.36863498  4.59744235 -0.00000028  CHARGE =  1.0
  H   15    (CENTRE 15)   2.36861664 -4.59742123 -0.00000028  CHARGE =  1.0
  H   16    (CENTRE 16)   2.36862496  4.59743807 -0.00000028  CHARGE =  1.0
  H   17    (CENTRE 17)   6.29435882  2.29332925 -0.00000028  CHARGE =  1.0
  H   18    (CENTRE 18)   6.29437357 -2.29333841 -0.00000028  CHARGE =  1.0
CENTRE ASSIGNMENTS    1  1  1  1  1  1  1  1  1  1  1  1  1  1  1  1  1  1  1  1
CENTRE ASSIGNMENTS    1  1  1  1  1  2  2  2  2  2  2  2  2  2  2  2  2  2  2  2
CENTRE ASSIGNMENTS    2  2  2  2  2  2  2  2  2  2  3  3  3  3  3  3  3  3  3  3
CENTRE ASSIGNMENTS    3  3  3  3  3  3  3  3  3  3  3  3  3  3  3  4  4  4  4  4
CENTRE ASSIGNMENTS    4  4  4  4  4  4  4  4  4  4  4  4  4  4  4  4  4  4  4  4
CENTRE ASSIGNMENTS    5  5  5  5  5  5  5  5  5  5  5  5  5  5  5  5  5  5  5  5
CENTRE ASSIGNMENTS    5  5  5  5  5  6  6  6  6  6  6  6  6  6  6  6  6  6  6  6
CENTRE ASSIGNMENTS    6  6  6  6  6  6  6  6  6  6  7  7  7  7  7  7  7  7  7  7
CENTRE ASSIGNMENTS    7  7  7  7  7  7  7  7  7  7  7  7  7  7  7  8  8  8  8  8
CENTRE ASSIGNMENTS    8  8  8  8  8  8  8  8  8  8  8  8  8  8  8  8  8  8  8  8
CENTRE ASSIGNMENTS    9  9  9  9  9  9  9  9  9  9  9  9  9  9  9  9  9  9  9  9
CENTRE ASSIGNMENTS    9  9  9  9  9 10 10 10 10 10 10 10 10 10 10 10 10 10 10 10
CENTRE ASSIGNMENTS   10 10 10 10 10 10 10 10 10 10 11 11 11 11 11 11 11 12 12 12
CENTRE ASSIGNMENTS   12 12 12 12 13 13 13 13 13 13 13 14 14 14 14 14 14 14 15 15
CENTRE ASSIGNMENTS   15 15 15 15 15 16 16 16 16 16 16 16 17 17 17 17 17 17 17 18
CENTRE ASSIGNMENTS   18 18 18 18 18 18
TYPE ASSIGNMENTS      1  1  1  1  1  1  1  2  2  2  3  3  3  4  4  4  2  3  4  5
TYPE ASSIGNMENTS      6  7  8  9 10  1  1  1  1  1  1  1  2  2  2  3  3  3  4  4
TYPE ASSIGNMENTS      4  2  3  4  5  6  7  8  9 10  1  1  1  1  1  1  1  2  2  2
TYPE ASSIGNMENTS      3  3  3  4  4  4  2  3  4  5  6  7  8  9 10  1  1  1  1  1
TYPE ASSIGNMENTS      1  1  2  2  2  3  3  3  4  4  4  2  3  4  5  6  7  8  9 10
TYPE ASSIGNMENTS      1  1  1  1  1  1  1  2  2  2  3  3  3  4  4  4  2  3  4  5
TYPE ASSIGNMENTS      6  7  8  9 10  1  1  1  1  1  1  1  2  2  2  3  3  3  4  4
TYPE ASSIGNMENTS      4  2  3  4  5  6  7  8  9 10  1  1  1  1  1  1  1  2  2  2
TYPE ASSIGNMENTS      3  3  3  4  4  4  2  3  4  5  6  7  8  9 10  1  1  1  1  1
TYPE ASSIGNMENTS      1  1  2  2  2  3  3  3  4  4  4  2  3  4  5  6  7  8  9 10
TYPE ASSIGNMENTS      1  1  1  1  1  1  1  2  2  2  3  3  3  4  4  4  2  3  4  5
TYPE ASSIGNMENTS      6  7  8  9 10  1  1  1  1  1  1  1  2  2  2  3  3  3  4  4
TYPE ASSIGNMENTS      4  2  3  4  5  6  7  8  9 10  1  1  1  1  2  3  4  1  1  1
TYPE ASSIGNMENTS      1  2  3  4  1  1  1  1  2  3  4  1  1  1  1  2  3  4  1  1
TYPE ASSIGNMENTS      1  1  2  3  4  1  1  1  1  2  3  4  1  1  1  1  2  3  4  1
TYPE ASSIGNMENTS      1  1  1  2  3  4
EXPONENTS  0.1238402D+04 0.1862900D+03 0.4225118D+02 0.1167656D+02 0.3593051D+01
EXPONENTS  0.4024515D+00 0.1309018D+00 0.9468097D+01 0.2010355D+01 0.5477100D+00
EXPONENTS  0.9468097D+01 0.2010355D+01 0.5477100D+00 0.9468097D+01 0.2010355D+01
EXPONENTS  0.5477100D+00 0.1526861D+00 0.1526861D+00 0.1526861D+00 0.8000000D+00
EXPONENTS  0.8000000D+00 0.8000000D+00 0.8000000D+00 0.8000000D+00 0.8000000D+00
EXPONENTS  0.1238402D+04 0.1862900D+03 0.4225118D+02 0.1167656D+02 0.3593051D+01
EXPONENTS  0.4024515D+00 0.1309018D+00 0.9468097D+01 0.2010355D+01 0.5477100D+00
EXPONENTS  0.9468097D+01 0.2010355D+01 0.5477100D+00 0.9468097D+01 0.2010355D+01
EXPONENTS  0.5477100D+00 0.1526861D+00 0.1526861D+00 0.1526861D+00 0.8000000D+00
EXPONENTS  0.8000000D+00 0.8000000D+00 0.8000000D+00 0.8000000D+00 0.8000000D+00
EXPONENTS  0.1238402D+04 0.1862900D+03 0.4225118D+02 0.1167656D+02 0.3593051D+01
EXPONENTS  0.4024515D+00 0.1309018D+00 0.9468097D+01 0.2010355D+01 0.5477100D+00
EXPONENTS  0.9468097D+01 0.2010355D+01 0.5477100D+00 0.9468097D+01 0.2010355D+01
EXPONENTS  0.5477100D+00 0.1526861D+00 0.1526861D+00 0.1526861D+00 0.8000000D+00
EXPONENTS  0.8000000D+00 0.8000000D+00 0.8000000D+00 0.8000000D+00 0.8000000D+00
EXPONENTS  0.1238402D+04 0.1862900D+03 0.4225118D+02 0.1167656D+02 0.3593051D+01
EXPONENTS  0.4024515D+00 0.1309018D+00 0.9468097D+01 0.2010355D+01 0.5477100D+00
EXPONENTS  0.9468097D+01 0.2010355D+01 0.5477100D+00 0.9468097D+01 0.2010355D+01
EXPONENTS  0.5477100D+00 0.1526861D+00 0.1526861D+00 0.1526861D+00 0.8000000D+00
EXPONENTS  0.8000000D+00 0.8000000D+00 0.8000000D+00 0.8000000D+00 0.8000000D+00
EXPONENTS  0.1238402D+04 0.1862900D+03 0.4225118D+02 0.1167656D+02 0.3593051D+01
EXPONENTS  0.4024515D+00 0.1309018D+00 0.9468097D+01 0.2010355D+01 0.5477100D+00
EXPONENTS  0.9468097D+01 0.2010355D+01 0.5477100D+00 0.9468097D+01 0.2010355D+01
EXPONENTS  0.5477100D+00 0.1526861D+00 0.1526861D+00 0.1526861D+00 0.8000000D+00
EXPONENTS  0.8000000D+00 0.8000000D+00 0.8000000D+00 0.8000000D+00 0.8000000D+00
EXPONENTS  0.1238402D+04 0.1862900D+03 0.4225118D+02 0.1167656D+02 0.3593051D+01
EXPONENTS  0.4024515D+00 0.1309018D+00 0.9468097D+01 0.2010355D+01 0.5477100D+00
EXPONENTS  0.9468097D+01 0.2010355D+01 0.5477100D+00 0.9468097D+01 0.2010355D+01
EXPONENTS  0.5477100D+00 0.1526861D+00 0.1526861D+00 0.1526861D+00 0.8000000D+00
EXPONENTS  0.8000000D+00 0.8000000D+00 0.8000000D+00 0.8000000D+00 0.8000000D+00
EXPONENTS  0.1238402D+04 0.1862900D+03 0.4225118D+02 0.1167656D+02 0.3593051D+01
EXPONENTS  0.4024515D+00 0.1309018D+00 0.9468097D+01 0.2010355D+01 0.5477100D+00
EXPONENTS  0.9468097D+01 0.2010355D+01 0.5477100D+00 0.9468097D+01 0.2010355D+01
EXPONENTS  0.5477100D+00 0.1526861D+00 0.1526861D+00 0.1526861D+00 0.8000000D+00
EXPONENTS  0.8000000D+00 0.8000000D+00 0.8000000D+00 0.8000000D+00 0.8000000D+00
EXPONENTS  0.1238402D+04 0.1862900D+03 0.4225118D+02 0.1167656D+02 0.3593051D+01
EXPONENTS  0.4024515D+00 0.1309018D+00 0.9468097D+01 0.2010355D+01 0.5477100D+00
EXPONENTS  0.9468097D+01 0.2010355D+01 0.5477100D+00 0.9468097D+01 0.2010355D+01
EXPONENTS  0.5477100D+00 0.1526861D+00 0.1526861D+00 0.1526861D+00 0.8000000D+00
EXPONENTS  0.8000000D+00 0.8000000D+00 0.8000000D+00 0.8000000D+00 0.8000000D+00
EXPONENTS  0.1238402D+04 0.1862900D+03 0.4225118D+02 0.1167656D+02 0.3593051D+01
EXPONENTS  0.4024515D+00 0.1309018D+00 0.9468097D+01 0.2010355D+01 0.5477100D+00
EXPONENTS  0.9468097D+01 0.2010355D+01 0.5477100D+00 0.9468097D+01 0.2010355D+01
EXPONENTS  0.5477100D+00 0.1526861D+00 0.1526861D+00 0.1526861D+00 0.8000000D+00
EXPONENTS  0.8000000D+00 0.8000000D+00 0.8000000D+00 0.8000000D+00 0.8000000D+00
EXPONENTS  0.1238402D+04 0.1862900D+03 0.4225118D+02 0.1167656D+02 0.3593051D+01
EXPONENTS  0.4024515D+00 0.1309018D+00 0.9468097D+01 0.2010355D+01 0.5477100D+00
EXPONENTS  0.9468097D+01 0.2010355D+01 0.5477100D+00 0.9468097D+01 0.2010355D+01
EXPONENTS  0.5477100D+00 0.1526861D+00 0.1526861D+00 0.1526861D+00 0.8000000D+00
EXPONENTS  0.8000000D+00 0.8000000D+00 0.8000000D+00 0.8000000D+00 0.8000000D+00
EXPONENTS  0.1301070D+02 0.1962257D+01 0.4445380D+00 0.1219496D+00 0.8000000D+00
EXPONENTS  0.8000000D+00 0.8000000D+00 0.1301070D+02 0.1962257D+01 0.4445380D+00
EXPONENTS  0.1219496D+00 0.8000000D+00 0.8000000D+00 0.8000000D+00 0.1301070D+02
EXPONENTS  0.1962257D+01 0.4445380D+00 0.1219496D+00 0.8000000D+00 0.8000000D+00
EXPONENTS  0.8000000D+00 0.1301070D+02 0.1962257D+01 0.4445380D+00 0.1219496D+00
EXPONENTS  0.8000000D+00 0.8000000D+00 0.8000000D+00 0.1301070D+02 0.1962257D+01
EXPONENTS  0.4445380D+00 0.1219496D+00 0.8000000D+00 0.8000000D+00 0.8000000D+00
EXPONENTS  0.1301070D+02 0.1962257D+01 0.4445380D+00 0.1219496D+00 0.8000000D+00
EXPONENTS  0.8000000D+00 0.8000000D+00 0.1301070D+02 0.1962257D+01 0.4445380D+00
EXPONENTS  0.1219496D+00 0.8000000D+00 0.8000000D+00 0.8000000D+00 0.1301070D+02
EXPONENTS  0.1962257D+01 0.4445380D+00 0.1219496D+00 0.8000000D+00 0.8000000D+00
EXPONENTS  0.8000000D+00
MO    1     MO 0.0        OCC NO =    2.0000000  ORB. ENERGY =   -9.926635
  0.44618419D-02  0.80260582D-02  0.11700167D-01  0.11458620D-01  0.45064351D-02
 -0.10061320D-02 -0.11887433D-03 -0.22636432D-02 -0.17947713D-02 -0.85867682D-03
 -0.94581510D-03 -0.74990695D-03 -0.35877983D-03 -0.22373834D-08 -0.17739507D-08
 -0.84871558D-09 -0.10605290D-02 -0.47318538D-04 -0.18168809D-09 -0.10845742D-02
  0.20539906D-03  0.87917518D-03 -0.16221696D-02 -0.44524220D-08  0.41735329D-08
 -0.96367163D-03 -0.17334735D-02 -0.25270099D-02 -0.24748404D-02 -0.97330290D-03
 -0.48289230D-03 -0.81175046D-03 -0.17975176D-03 -0.14251950D-03 -0.68185954D-04
 -0.54617266D-03 -0.43304307D-03 -0.20718186D-03 -0.52436317D-09 -0.41575101D-09
 -0.19890878D-09  0.13380766D-03  0.59792298D-03  0.89630648D-10  0.23210775D-03
 -0.18973204D-04 -0.21313454D-03  0.36402303D-04 -0.90661502D-09  0.46433588D-09
 -0.96463139D-03 -0.17351999D-02 -0.25295267D-02 -0.24773052D-02 -0.97427226D-03
 -0.48304347D-03 -0.81179171D-03 -0.17987473D-03 -0.14261700D-03 -0.68232600D-04
  0.54612424D-03  0.43300468D-03  0.20716349D-03  0.42866769D-10  0.33987709D-10
  0.16260823D-10  0.13381759D-03 -0.59796510D-03 -0.42221721D-10  0.23208566D-03
 -0.18972353D-04 -0.21311331D-03 -0.36400405D-04  0.80830690D-10  0.10736130D-09
  0.44602630D-02  0.80232181D-02  0.11696026D-01  0.11454565D-01  0.45048405D-02
 -0.10058307D-02 -0.11997744D-03 -0.22627416D-02 -0.17940564D-02 -0.85833483D-03
  0.94548083D-03  0.74964192D-03  0.35865302D-03 -0.88708727D-11 -0.70334351D-11
 -0.33650236D-11 -0.10609941D-02  0.47137894D-04 -0.40322683D-11 -0.10842956D-02
  0.20553174D-03  0.87876383D-03  0.16213427D-02 -0.41554820D-10  0.16704471D-10
  0.57348006D+00  0.10315884D+01  0.15038212D+01  0.14727751D+01  0.57921162D+00
  0.11768880D-01  0.14567754D-03  0.74299157D-09  0.58909458D-09  0.28184197D-09
  0.12633297D-02  0.10016543D-02  0.47922391D-03  0.70882683D-10  0.56200643D-10
  0.26888212D-10 -0.19798145D-07  0.12868222D-02  0.55473287D-10  0.17695907D-02
 -0.86175533D-03 -0.90783538D-03 -0.58612888D-08  0.54691693D-10 -0.29392466D-09
  0.57371165D+00  0.10320050D+01  0.15044285D+01  0.14733699D+01  0.57944553D+00
  0.11774401D-01  0.14405987D-03 -0.61892729D-08 -0.49072792D-08 -0.23478017D-08
 -0.12625821D-02 -0.10010615D-02 -0.47894033D-03 -0.39571534D-09 -0.31375021D-09
 -0.15010828D-09  0.60094278D-08 -0.12855095D-02 -0.68699086D-11  0.17695677D-02
 -0.86066952D-03 -0.90889821D-03  0.16378480D-08 -0.56591947D-09 -0.66133849D-09
  0.44620256D-02  0.80263888D-02  0.11700649D-01  0.11459092D-01  0.45066207D-02
 -0.10061255D-02 -0.11893272D-03  0.22636534D-02  0.17947794D-02  0.85868070D-03
 -0.94581631D-03 -0.74990791D-03 -0.35878028D-03  0.24322544D-09  0.19284578D-09
  0.92263679D-10  0.10605037D-02 -0.47336007D-04 -0.61384817D-10 -0.10845717D-02
  0.20539554D-03  0.87917621D-03  0.16221686D-02 -0.12034075D-09  0.10005666D-09
  0.44602994D-02  0.80232835D-02  0.11696122D-01  0.11454658D-01  0.45048772D-02
 -0.10058231D-02 -0.11991597D-03  0.22627405D-02  0.17940556D-02  0.85833442D-03
  0.94548863D-03  0.74964810D-03  0.35865598D-03  0.10301742D-10  0.81679261D-11
  0.39078010D-11  0.10610007D-02  0.47097052D-04 -0.22807847D-10 -0.10842980D-02
  0.20553398D-03  0.87876399D-03 -0.16213289D-02  0.48222726D-10  0.34527795D-10
 -0.96456980D-03 -0.17350891D-02 -0.25293652D-02 -0.24771470D-02 -0.97421006D-03
 -0.48304035D-03 -0.81186446D-03  0.17987191D-03  0.14261477D-03  0.68231533D-04
  0.54611905D-03  0.43300057D-03  0.20716153D-03  0.24929550D-11  0.19765854D-11
  0.94566261D-12 -0.13378609D-03 -0.59795583D-03 -0.63227026D-11  0.23208178D-03
 -0.18968212D-04 -0.21311357D-03  0.36395693D-04 -0.19100092D-10  0.36459894D-10
 -0.96366667D-03 -0.17334646D-02 -0.25269969D-02 -0.24748277D-02 -0.97329789D-03
 -0.48289729D-03 -0.81165963D-03  0.17975503D-03  0.14252209D-03  0.68187193D-04
 -0.54617011D-03 -0.43304105D-03 -0.20718089D-03 -0.57208988D-10 -0.45359202D-10
 -0.21701314D-10 -0.13383544D-03  0.59793078D-03  0.40061030D-10  0.23210840D-03
 -0.18966239D-04 -0.21314217D-03 -0.36413096D-04 -0.37176476D-10 -0.31861638D-10
  0.18512509D-04  0.31405352D-04  0.35753341D-04  0.40109796D-04  0.68465515D-03
  0.31908593D-03 -0.28410246D-08  0.13222841D-03  0.22431751D-03  0.25537368D-03
  0.26059789D-03  0.19043137D-07 -0.18160044D-03 -0.18578740D-09  0.13223821D-03
  0.22433413D-03  0.25539260D-03  0.26061253D-03  0.11960483D-07  0.18154991D-03
  0.46573082D-10  0.18555832D-04  0.31478848D-04  0.35837012D-04  0.40323848D-04
  0.68464132D-03 -0.31885731D-03  0.32404800D-11  0.18511771D-04  0.31404101D-04
  0.35751917D-04  0.40110231D-04 -0.68464527D-03  0.31908742D-03  0.46451925D-10
  0.18562331D-04  0.31489872D-04  0.35849562D-04  0.40338733D-04 -0.68464768D-03
 -0.31885551D-03  0.17741734D-10  0.13223505D-03  0.22432877D-03  0.25538650D-03
  0.26060733D-03 -0.16483264D-07  0.18155293D-03  0.51744845D-11  0.13222983D-03
  0.22431992D-03  0.25537642D-03  0.26059457D-03 -0.11209475D-07 -0.18159197D-03
 -0.39610033D-10
MO    2     MO 0.0        OCC NO =    2.0000000  ORB. ENERGY =   -9.926568
 -0.54154953D-02 -0.97415108D-02 -0.14200906D-01 -0.13907732D-01 -0.54696197D-02
  0.68016417D-03 -0.25000569D-02  0.22311342D-02  0.17689959D-02  0.84634507D-03
  0.84663974D-03  0.67127394D-03  0.32115924D-03  0.97821663D-08  0.77559711D-08
  0.37107083D-08 -0.12465874D-02  0.58201434D-03 -0.59033714D-08  0.68593845D-03
  0.31974561D-03 -0.10056841D-02  0.21055134D-02 -0.68938669D-09  0.18296603D-08
 -0.24995352D-02 -0.44962183D-02 -0.65544633D-02 -0.64191480D-02 -0.25245165D-02
 -0.36549037D-03 -0.46774001D-03 -0.28543515D-03 -0.22631252D-03 -0.10827526D-03
  0.11930201D-03  0.94590799D-04  0.45255308D-04 -0.26598477D-10 -0.21089093D-10
 -0.10089707D-10 -0.10933141D-03  0.63491921D-04  0.18278483D-08 -0.56829743D-04
 -0.47003915D-05  0.61530134D-04 -0.42994647D-04  0.29746834D-08 -0.11088258D-08
  0.24989768D-02  0.44952138D-02  0.65529990D-02  0.64177139D-02  0.25239525D-02
  0.36528551D-03  0.46741073D-03  0.28535518D-03  0.22624912D-03  0.10824492D-03
  0.11951748D-03  0.94761641D-04  0.45337045D-04 -0.78288524D-10 -0.62072501D-10
 -0.29697499D-10  0.10938467D-03  0.63252180D-04 -0.65051023D-09  0.56920129D-04
  0.46919626D-05 -0.61612092D-04 -0.43008846D-04  0.42273482D-09  0.44595338D-09
  0.54180260D-02  0.97460630D-02  0.14207542D-01  0.13914231D-01  0.54721757D-02
 -0.68054220D-03  0.24999811D-02 -0.22320432D-02 -0.17697166D-02 -0.84668988D-03
  0.84705053D-03  0.67159964D-03  0.32131507D-03 -0.66092860D-09 -0.52402943D-09
 -0.25071269D-09  0.12461474D-02  0.58203074D-03  0.70687202D-09 -0.68637588D-03
 -0.31965514D-03  0.10060310D-02  0.21061860D-02  0.30317340D-09 -0.31198614D-09
  0.57305664D+00  0.10308268D+01  0.15027109D+01  0.14716878D+01  0.57878398D+00
  0.13655549D-01 -0.37894679D-02 -0.67307298D-08 -0.53365833D-08 -0.25531947D-08
 -0.18357631D-02 -0.14555187D-02 -0.69636737D-03  0.50060786D-09  0.39691618D-09
  0.18989758D-09 -0.88853025D-08 -0.34022374D-02 -0.12265158D-08 -0.56507146D-04
  0.26900722D-02 -0.26335650D-02  0.21923360D-08 -0.25745861D-09  0.12621703D-08
 -0.57282480D+00 -0.10304097D+01 -0.15021029D+01 -0.14710924D+01 -0.57854982D+00
 -0.13650791D-01  0.37895504D-02  0.21625311D-08  0.17146027D-08  0.82032156D-09
 -0.18362679D-02 -0.14559188D-02 -0.69655883D-03 -0.12138618D-08 -0.96243270D-09
 -0.46045904D-09  0.16660314D-09 -0.34027646D-02  0.30039507D-08  0.57221931D-04
 -0.26904207D-02  0.26331988D-02 -0.68670541D-08 -0.25608935D-08 -0.11203173D-08
 -0.54157280D-02 -0.97419293D-02 -0.14201516D-01 -0.13908329D-01 -0.54698547D-02
  0.68015711D-03 -0.25000552D-02 -0.22311350D-02 -0.17689965D-02 -0.84634536D-03
  0.84664216D-03  0.67127586D-03  0.32116016D-03  0.12947377D-08  0.10265567D-08
  0.49113803D-09  0.12465928D-02  0.58201157D-03 -0.14526019D-08  0.68593181D-03
  0.31974994D-03 -0.10056817D-02 -0.21055144D-02  0.13129796D-08 -0.11210535D-08
  0.54180250D-02  0.97460612D-02  0.14207540D-01  0.13914228D-01  0.54721747D-02
 -0.68054147D-03  0.24999839D-02  0.22320515D-02  0.17697232D-02  0.84669303D-03
  0.84704532D-03  0.67159551D-03  0.32131309D-03  0.27027010D-09  0.21428863D-09
  0.10252264D-09 -0.12461580D-02  0.58203077D-03  0.34355569D-09 -0.68637793D-03
 -0.31965217D-03  0.10060301D-02 -0.21061691D-02 -0.39882625D-09 -0.87492887D-10
  0.24988421D-02  0.44949716D-02  0.65526458D-02  0.64173680D-02  0.25238164D-02
  0.36528293D-03  0.46741454D-03 -0.28535632D-03 -0.22625002D-03 -0.10824535D-03
  0.11951895D-03  0.94762807D-04  0.45337602D-04  0.36206035D-09  0.28706623D-09
  0.13734180D-09 -0.10938902D-03  0.63257470D-04 -0.35595893D-09  0.56921211D-04
  0.46917578D-05 -0.61612968D-04  0.43009510D-04 -0.28765849D-11  0.18889990D-09
 -0.24995034D-02 -0.44961611D-02 -0.65543798D-02 -0.64190663D-02 -0.25244843D-02
 -0.36548506D-03 -0.46774132D-03  0.28543497D-03  0.22631238D-03  0.10827519D-03
  0.11929819D-03  0.94587770D-04  0.45253859D-04 -0.20760879D-09 -0.16460646D-09
 -0.78753073D-10  0.10933446D-03  0.63500306D-04  0.58672703D-09 -0.56828081D-04
 -0.46996701D-05  0.61527751D-04  0.42991701D-04 -0.44029503D-09 -0.54398705D-09
  0.13419465D-03  0.22765311D-03  0.25917108D-03  0.57110549D-03  0.55101256D-05
 -0.52695874D-03  0.69079937D-09  0.14134574D-04  0.23978450D-04  0.27298204D-04
  0.25044130D-04  0.29406780D-04  0.96381466D-04 -0.16651359D-08 -0.14080840D-04
 -0.23887295D-04 -0.27194428D-04 -0.24939321D-04 -0.29402738D-04  0.96455348D-04
  0.42457325D-09 -0.13419277D-03 -0.22764992D-03 -0.25916745D-03 -0.57107706D-03
 -0.52493173D-05 -0.52705226D-03 -0.58725893D-09  0.13419482D-03  0.22765340D-03
  0.25917142D-03  0.57110451D-03 -0.55122706D-05 -0.52695768D-03  0.87521812D-09
 -0.13419218D-03 -0.22764893D-03 -0.25916633D-03 -0.57107762D-03  0.52344228D-05
 -0.52705255D-03 -0.21864207D-09 -0.14080472D-04 -0.23886670D-04 -0.27193716D-04
 -0.24940280D-04  0.29404239D-04  0.96454576D-04  0.29137452D-09  0.14134166D-04
  0.23977758D-04  0.27297416D-04  0.25045129D-04 -0.29404037D-04  0.96379030D-04
 -0.44085958D-09
MO    3     MO 0.0        OCC NO =    2.0000000  ORB. ENERGY =   -9.918841
  0.32360501D+00  0.58210774D+00  0.84858063D+00  0.83106189D+00  0.32683924D+00
  0.79362066D-02  0.55259362D-02  0.10861960D-02  0.86121051D-03  0.41203106D-03
 -0.35487376D-03 -0.28136820D-03 -0.13461568D-03  0.26036820D-07  0.20643773D-07
  0.98766513D-08  0.45997942D-03  0.28912099D-02 -0.61766483D-08  0.64954625D-04
  0.10810037D-02 -0.11459584D-02  0.61127403D-03 -0.77959089D-09 -0.30492988D-07
  0.54969039D-01  0.98879503D-01  0.14414382D+00  0.14116800D+00  0.55518419D-01
  0.87912504D-03 -0.44369228D-02 -0.11352632D-02 -0.90011437D-03 -0.43064393D-03
  0.11472280D-02  0.90960091D-03  0.43518260D-03  0.10471968D-08  0.83028929D-09
  0.39723734D-09 -0.18541820D-02 -0.65111224D-03  0.14237334D-08 -0.55634131D-03
  0.11393042D-03  0.44241089D-03  0.98344052D-03  0.50762044D-08 -0.50832068D-09
 -0.55882780D-01 -0.10052316D+00 -0.14653989D+00 -0.14351461D+00 -0.56441292D-01
 -0.89203473D-03  0.44358349D-02  0.11477007D-02  0.90997565D-03  0.43536189D-03
  0.11515872D-02  0.91305717D-03  0.43683618D-03 -0.43209680D-09 -0.34259592D-09
 -0.16390901D-09  0.18538756D-02 -0.65244107D-03 -0.37632008D-09  0.55860782D-03
 -0.11399087D-03 -0.44461695D-03  0.99307124D-03  0.35279104D-09  0.36497632D-09
 -0.32647904D+00 -0.58727761D+00 -0.85611712D+00 -0.83844279D+00 -0.32974199D+00
 -0.79978365D-02 -0.55131265D-02 -0.10901638D-02 -0.86435647D-03 -0.41353619D-03
 -0.36349436D-03 -0.28820321D-03 -0.13788577D-03 -0.47683457D-09 -0.37806708D-09
 -0.18087956D-09 -0.46247951D-03  0.28950423D-02  0.53177075D-09 -0.66327712D-04
 -0.10890577D-02  0.11553854D-02  0.61559643D-03  0.33733065D-09 -0.28170992D-09
 -0.12954067D-02 -0.23302057D-02 -0.33969098D-02 -0.33267814D-02 -0.13083534D-02
 -0.26158557D-03  0.20510631D-02 -0.74702088D-03 -0.59228929D-03 -0.28337042D-03
 -0.93245379D-04 -0.73931319D-04 -0.35371143D-04 -0.26929844D-10 -0.21351824D-10
 -0.10215406D-10 -0.71322476D-02 -0.10654045D-02 -0.99344259D-09 -0.28423788D-03
  0.14303609D-03  0.14120179D-03 -0.24948018D-02 -0.22469483D-09  0.12851144D-08
  0.12982406D-02  0.23353035D-02  0.34043411D-02  0.33340593D-02  0.13112157D-02
  0.26308554D-03 -0.20512869D-02  0.72967840D-03  0.57853899D-03  0.27679183D-03
 -0.93701406D-04 -0.74292888D-04 -0.35544129D-04 -0.13940106D-08 -0.11052670D-08
 -0.52879562D-09  0.71274637D-02 -0.10661748D-02  0.28584087D-08  0.28502034D-03
 -0.14320648D-03 -0.14181385D-03 -0.24728202D-02 -0.42875658D-08 -0.65527549D-09
 -0.45910441D+00 -0.82584700D+00 -0.12038970D+01 -0.11790429D+01 -0.46369286D+00
 -0.11241795D-01 -0.40571345D-02  0.13253350D-02  0.10508163D-02  0.50274464D-03
  0.46179659D-03  0.36614394D-03  0.17517515D-03  0.22146845D-08  0.17559534D-08
  0.84010512D-09  0.84406665D-03 -0.21107961D-02 -0.17098553D-08 -0.22201415D-03
 -0.13393164D-02  0.15613305D-02  0.59662953D-03  0.98482415D-09 -0.70215257D-09
  0.46140352D+00  0.82998269D+00  0.12099259D+01  0.11849473D+01  0.46601495D+00
  0.11291276D-01  0.40471312D-02 -0.13270231D-02 -0.10521548D-02 -0.50338499D-03
  0.46866023D-03  0.37158591D-03  0.17777876D-03  0.16110672D-09  0.12773644D-09
  0.61113257D-10 -0.84566368D-03 -0.21153124D-02  0.29402929D-09  0.22360805D-03
  0.13458503D-02 -0.15694584D-02  0.59961979D-03 -0.24022998D-09 -0.29553749D-10
  0.89535609D-01  0.16105860D+00  0.23478679D+00  0.22993968D+00  0.90430460D-01
  0.15504123D-02 -0.32818018D-02  0.15583678D-02  0.12355806D-02  0.59114188D-03
 -0.15353894D-02 -0.12173618D-02 -0.58242542D-03  0.37437695D-09  0.29683167D-09
  0.14201391D-09  0.15997153D-02  0.57359862D-03 -0.39645247D-09 -0.75426489D-03
  0.22225166D-03  0.53201324D-03  0.14155597D-02 -0.61349848D-10  0.31308660D-09
 -0.89139910D-01 -0.16034681D+00 -0.23374916D+00 -0.22892347D+00 -0.90030806D-01
 -0.15473908D-02  0.32833311D-02 -0.15483052D-02 -0.12276024D-02 -0.58732482D-03
 -0.15301124D-02 -0.12131779D-02 -0.58042367D-03 -0.38327005D-09 -0.30388273D-09
 -0.14538736D-09 -0.15997877D-02  0.57266357D-03  0.74961218D-09  0.75139671D-03
 -0.22162848D-03 -0.52976823D-03  0.14086119D-02 -0.61013214D-09 -0.65670844D-09
 -0.20315756D-03 -0.34464452D-03 -0.39235965D-03  0.88839720D-03 -0.12962983D-03
 -0.16070135D-02  0.39153235D-08 -0.19672991D-03 -0.33374041D-03 -0.37994589D-03
 -0.19645516D-03  0.35091534D-03 -0.20740628D-03 -0.11421121D-08  0.19771299D-03
  0.33540815D-03  0.38184453D-03  0.19609448D-03 -0.35023470D-03 -0.20838688D-03
  0.15865884D-09  0.20591948D-03  0.34932996D-03  0.39769377D-03 -0.89461464D-03
  0.13132077D-03 -0.16180474D-02 -0.45707035D-09  0.46051773D-03  0.78124050D-03
  0.88940120D-03 -0.83312357D-03 -0.18875611D-03  0.20684614D-02  0.90311274D-09
 -0.46249923D-03 -0.78460199D-03 -0.89322808D-03  0.83893658D-03  0.18994182D-03
  0.20774157D-02 -0.17057331D-09 -0.24662921D-03 -0.41839155D-03 -0.47631676D-03
 -0.20087389D-03 -0.33278053D-03  0.34124497D-03  0.32384898D-09  0.24628136D-03
  0.41780145D-03  0.47564496D-03  0.20078763D-03  0.33210504D-03  0.34091687D-03
 -0.59653559D-09
MO    4     MO 0.0        OCC NO =    2.0000000  ORB. ENERGY =   -9.918841
 -0.45275303D+00 -0.81442200D+00 -0.11872420D+01 -0.11627316D+01 -0.45727800D+00
 -0.11061648D-01  0.33462432D-02 -0.88794216D-03 -0.70402133D-03 -0.33682665D-03
  0.36917590D-03  0.29270793D-03  0.14004097D-03 -0.18226711D-07 -0.14451384D-07
 -0.69140111D-08 -0.12103189D-02  0.17943262D-02 -0.41899751D-08 -0.47381984D-03
 -0.94107198D-03  0.14148918D-02 -0.59310827D-04 -0.19463319D-09  0.48807830D-07
 -0.10887554D+00 -0.19584768D+00 -0.28550136D+00 -0.27960725D+00 -0.10996368D+00
 -0.21003551D-02 -0.26241803D-02  0.14037593D-02  0.11129965D-02  0.53249364D-03
 -0.13305675D-02 -0.10549650D-02 -0.50472950D-03 -0.11990645D-08 -0.95070045D-09
 -0.45484595D-09 -0.42478023D-03 -0.11916588D-03  0.18627895D-08  0.67202708D-03
 -0.34069760D-03 -0.33132948D-03 -0.14124489D-02 -0.64344637D-09 -0.15809519D-08
  0.11127286D+00  0.20016003D+00  0.29178779D+00  0.28576390D+00  0.11238496D+00
  0.21397435D-02  0.26300901D-02 -0.14266301D-02 -0.11311300D-02 -0.54116931D-03
 -0.13352941D-02 -0.10587125D-02 -0.50652244D-03  0.36065418D-09  0.28595132D-09
  0.13680839D-09  0.42803618D-03 -0.11701082D-03 -0.80683560D-09 -0.67460110D-03
  0.33885210D-03  0.33574901D-03 -0.14350571D-02  0.43691854D-09  0.42218932D-09
  0.45870632D+00  0.82513090D+00  0.12028531D+01  0.11780205D+01  0.46329079D+00
  0.11191716D-01 -0.33843796D-02  0.89933467D-03  0.71305408D-03  0.34114822D-03
  0.38299936D-03  0.30366811D-03  0.14528468D-03 -0.72641362D-09 -0.57595044D-09
 -0.27555338D-09  0.12150501D-02  0.17998254D-02  0.73002985D-09  0.47582341D-03
  0.95730461D-03 -0.14331280D-02 -0.66489141D-04  0.20879704D-09 -0.25240879D-09
 -0.74586543D-02 -0.13416790D-01 -0.19558626D-01 -0.19154843D-01 -0.75331987D-02
 -0.15137043D-02  0.11757000D-01  0.13248769D-03  0.10504531D-03  0.50257085D-04
 -0.54162055D-03 -0.42943384D-03 -0.20545509D-03  0.74072674D-09  0.58729886D-09
  0.28098284D-09  0.12456035D-02 -0.61086928D-02 -0.11915628D-08 -0.16373205D-02
  0.82125906D-03  0.81606141D-03  0.43817511D-03 -0.31422384D-09  0.85895196D-09
  0.74001481D-02  0.13311547D-01  0.19405207D-01  0.19004591D-01  0.74741078D-02
  0.14910418D-02 -0.11740171D-01 -0.12512385D-03 -0.99206749D-04 -0.47463729D-04
 -0.52852150D-03 -0.41904802D-03 -0.20048618D-03 -0.26737085D-08 -0.21198991D-08
 -0.10142285D-08 -0.12435175D-02 -0.61019978D-02  0.25439466D-08  0.16229196D-02
 -0.81841036D-03 -0.80450920D-03  0.42888671D-03  0.47942927D-09 -0.15073040D-08
 -0.31676538D+00 -0.56980445D+00 -0.83064524D+00 -0.81349677D+00 -0.31993124D+00
 -0.77275503D-02  0.50219514D-02  0.46776417D-03  0.37087545D-03  0.17743885D-03
  0.22869590D-03  0.18132576D-03  0.86752130D-04 -0.70380584D-10 -0.55802545D-10
 -0.26697749D-10  0.98356366D-03  0.26663464D-02 -0.79821134D-09 -0.42395352D-03
 -0.52049023D-03  0.94444375D-03 -0.15042711D-03  0.12209948D-08 -0.12846945D-08
  0.32056745D+00  0.57664371D+00  0.84061532D+00  0.82326102D+00  0.32377132D+00
  0.78122109D-02 -0.50511997D-02 -0.47588844D-03 -0.37731693D-03 -0.18052066D-03
  0.23541843D-03  0.18665585D-03  0.89302215D-04  0.21787786D-09  0.17274848D-09
  0.82648479D-10 -0.98589126D-03  0.26755499D-02  0.31260529D-09  0.42530997D-03
  0.53052035D-03 -0.95583032D-03 -0.14744888D-03 -0.52587354D-09 -0.13541928D-09
  0.85449303D-01  0.15370806D+00  0.22407138D+00  0.21944549D+00  0.86303313D-01
  0.17051883D-02  0.39786334D-02  0.95128093D-03  0.75424063D-03  0.36085320D-03
 -0.86568113D-03 -0.68637126D-03 -0.32838229D-03  0.27317749D-09  0.21659381D-09
  0.10362551D-09 -0.10309980D-02 -0.33156457D-03 -0.21984108D-09 -0.44554224D-03
  0.27990020D-03  0.16564204D-03  0.10122582D-02  0.57835770D-10  0.10927972D-10
 -0.83958900D-01 -0.15102710D+00 -0.22016314D+00 -0.21561793D+00 -0.84798015D-01
 -0.16800312D-02 -0.39727325D-02 -0.93803179D-03 -0.74373581D-03 -0.35582735D-03
 -0.86321564D-03 -0.68441645D-03 -0.32744704D-03  0.10948228D-09  0.86805044D-10
  0.41530351D-10  0.10278143D-02 -0.33238507D-03  0.24125543D-09  0.44399710D-03
 -0.28163108D-03 -0.16236602D-03  0.99699296D-03 -0.11747161D-09 -0.29653382D-09
  0.79010826D-03  0.13403709D-02  0.15259418D-02  0.11761107D-04  0.19531807D-03
  0.16281910D-02 -0.31058929D-07  0.17887693D-03  0.30345390D-03  0.34546630D-03
  0.48034664D-04 -0.84788438D-05  0.42868689D-03 -0.18983010D-08 -0.18144848D-03
 -0.30781638D-03 -0.35043275D-03 -0.46334853D-04  0.43933605D-05  0.43173696D-03
  0.62879811D-09 -0.79794867D-03 -0.13536717D-02 -0.15410840D-02 -0.49208389D-05
 -0.19798630D-03  0.16513552D-02 -0.58643937D-09  0.67482796D-03  0.11448048D-02
  0.13033001D-02  0.31070313D-03 -0.14029296D-03  0.98905589D-03  0.66211314D-09
 -0.68072294D-03 -0.11548053D-02 -0.13146851D-02 -0.30895339D-03  0.14122899D-03
  0.10041354D-02 -0.20006912D-09 -0.10333280D-03 -0.17529786D-03 -0.19956738D-03
  0.22594901D-04  0.11382879D-03  0.33518824D-03  0.18267592D-09  0.10182297D-03
  0.17273652D-03  0.19665143D-03 -0.21330010D-04 -0.11095432D-03  0.33302328D-03
 -0.14313118D-09
MO    5     MO 0.0        OCC NO =    2.0000000  ORB. ENERGY =   -9.918788
  0.34650871D+00  0.62330740D+00  0.90864037D+00  0.88988171D+00  0.34997184D+00
  0.74995418D-02 -0.20675680D-02  0.99997597D-03  0.79284940D-03  0.37932489D-03
 -0.87025451D-03 -0.68999735D-03 -0.33011713D-03  0.17204198D-07  0.13640665D-07
  0.65261371D-08  0.38499138D-03 -0.47994599D-03  0.16756290D-09  0.12714541D-04
  0.91868218D-03 -0.93139672D-03  0.54367057D-03  0.32087162D-09 -0.33644894D-07
  0.21623262D+00  0.38896394D+00  0.56702092D+00  0.55531491D+00  0.21839372D+00
  0.39403909D-02  0.11412676D-03 -0.13506785D-02 -0.10709103D-02 -0.51235826D-03
 -0.94967343D-04 -0.75296610D-04 -0.36024342D-04  0.65065821D-09  0.51588637D-09
  0.24681678D-09  0.18262941D-03 -0.16445616D-03 -0.47867241D-09  0.78771377D-04
 -0.21768785D-03  0.13891648D-03  0.14628003D-02  0.19642307D-08  0.53497128D-09