 Generated by Multiwfn
GAUSSIAN             21 MOL ORBITALS    188 PRIMITIVES       17 NUCLEI
  C    1    (CENTRE  1)  -0.00029279 -0.00049485 -0.00000001  CHARGE =  6.0
  C    2    (CENTRE  2)  -0.97880541 -1.38419108  2.39567508  CHARGE =  6.0
  C    3    (CENTRE  3)  -0.97880544 -1.38419107 -2.39567507  CHARGE =  6.0
  C    4    (CENTRE  4)  -0.97700002  2.76685298 -0.00000000  CHARGE =  6.0
  C    5    (CENTRE  5)   2.93418306  0.00081157 -0.00000001  CHARGE =  6.0
  H    6    (CENTRE  6)  -0.31344489 -0.44349336  4.13594480  CHARGE =  1.0
  H    7    (CENTRE  7)  -3.06502282 -1.41590897  2.44905189  CHARGE =  1.0
  H    8    (CENTRE  8)  -0.31254532 -3.36141213  2.44912098  CHARGE =  1.0
  H    9    (CENTRE  9)  -0.31344485 -0.44349343 -4.13594481  CHARGE =  1.0
  H   10    (CENTRE 10)  -3.06502285 -1.41590883 -2.44905191  CHARGE =  1.0
  H   11    (CENTRE 11)  -0.31254546 -3.36141216 -2.44912095  CHARGE =  1.0
  H   12    (CENTRE 12)  -0.30941156  3.80181093 -1.68499840  CHARGE =  1.0
  H   13    (CENTRE 13)  -3.06313349  2.83272168 -0.00000003  CHARGE =  1.0
  H   14    (CENTRE 14)  -0.30941161  3.80181090  1.68499842  CHARGE =  1.0
  H   15    (CENTRE 15)   3.68687226  0.97538050 -1.68513603  CHARGE =  1.0
  H   16    (CENTRE 16)   3.69103458 -1.94426315 -0.00000001  CHARGE =  1.0
  H   17    (CENTRE 17)   3.68687220  0.97538047  1.68513605  CHARGE =  1.0
CENTRE ASSIGNMENTS    1  1  1  1  1  1  1  1  1  1  1  1  1  1  1  1  1  1  1  1
CENTRE ASSIGNMENTS    1  1  1  1  1  1  1  1  2  2  2  2  2  2  2  2  2  2  2  2
CENTRE ASSIGNMENTS    2  2  2  2  2  2  2  2  2  2  2  2  2  2  2  2  3  3  3  3
CENTRE ASSIGNMENTS    3  3  3  3  3  3  3  3  3  3  3  3  3  3  3  3  3  3  3  3
CENTRE ASSIGNMENTS    3  3  3  3  4  4  4  4  4  4  4  4  4  4  4  4  4  4  4  4
CENTRE ASSIGNMENTS    4  4  4  4  4  4  4  4  4  4  4  4  5  5  5  5  5  5  5  5
CENTRE ASSIGNMENTS    5  5  5  5  5  5  5  5  5  5  5  5  5  5  5  5  5  5  5  5
CENTRE ASSIGNMENTS    6  6  6  6  7  7  7  7  8  8  8  8  9  9  9  9 10 10 10 10
CENTRE ASSIGNMENTS   11 11 11 11 12 12 12 12 13 13 13 13 14 14 14 14 15 15 15 15
CENTRE ASSIGNMENTS   16 16 16 16 17 17 17 17
TYPE ASSIGNMENTS      1  1  1  1  1  1  1  1  1  2  2  2  3  3  3  4  4  4  1  2
TYPE ASSIGNMENTS      3  4  5  6  7  8  9 10  1  1  1  1  1  1  1  1  1  2  2  2
TYPE ASSIGNMENTS      3  3  3  4  4  4  1  2  3  4  5  6  7  8  9 10  1  1  1  1
TYPE ASSIGNMENTS      1  1  1  1  1  2  2  2  3  3  3  4  4  4  1  2  3  4  5  6
TYPE ASSIGNMENTS      7  8  9 10  1  1  1  1  1  1  1  1  1  2  2  2  3  3  3  4
TYPE ASSIGNMENTS      4  4  1  2  3  4  5  6  7  8  9 10  1  1  1  1  1  1  1  1
TYPE ASSIGNMENTS      1  2  2  2  3  3  3  4  4  4  1  2  3  4  5  6  7  8  9 10
TYPE ASSIGNMENTS      1  1  1  1  1  1  1  1  1  1  1  1  1  1  1  1  1  1  1  1
TYPE ASSIGNMENTS      1  1  1  1  1  1  1  1  1  1  1  1  1  1  1  1  1  1  1  1
TYPE ASSIGNMENTS      1  1  1  1  1  1  1  1
EXPONENTS  0.3047525D+04 0.4573695D+03 0.1039487D+03 0.2921016D+02 0.9286663D+01
EXPONENTS  0.3163927D+01 0.7868272D+01 0.1881288D+01 0.5442493D+00 0.7868272D+01
EXPONENTS  0.1881288D+01 0.5442493D+00 0.7868272D+01 0.1881288D+01 0.5442493D+00
EXPONENTS  0.7868272D+01 0.1881288D+01 0.5442493D+00 0.1687144D+00 0.1687144D+00
EXPONENTS  0.1687144D+00 0.1687144D+00 0.8000000D+00 0.8000000D+00 0.8000000D+00
EXPONENTS  0.8000000D+00 0.8000000D+00 0.8000000D+00 0.3047525D+04 0.4573695D+03
EXPONENTS  0.1039487D+03 0.2921016D+02 0.9286663D+01 0.3163927D+01 0.7868272D+01
EXPONENTS  0.1881288D+01 0.5442493D+00 0.7868272D+01 0.1881288D+01 0.5442493D+00
EXPONENTS  0.7868272D+01 0.1881288D+01 0.5442493D+00 0.7868272D+01 0.1881288D+01
EXPONENTS  0.5442493D+00 0.1687144D+00 0.1687144D+00 0.1687144D+00 0.1687144D+00
EXPONENTS  0.8000000D+00 0.8000000D+00 0.8000000D+00 0.8000000D+00 0.8000000D+00
EXPONENTS  0.8000000D+00 0.3047525D+04 0.4573695D+03 0.1039487D+03 0.2921016D+02
EXPONENTS  0.9286663D+01 0.3163927D+01 0.7868272D+01 0.1881288D+01 0.5442493D+00
EXPONENTS  0.7868272D+01 0.1881288D+01 0.5442493D+00 0.7868272D+01 0.1881288D+01
EXPONENTS  0.5442493D+00 0.7868272D+01 0.1881288D+01 0.5442493D+00 0.1687144D+00
EXPONENTS  0.1687144D+00 0.1687144D+00 0.1687144D+00 0.8000000D+00 0.8000000D+00
EXPONENTS  0.8000000D+00 0.8000000D+00 0.8000000D+00 0.8000000D+00 0.3047525D+04
EXPONENTS  0.4573695D+03 0.1039487D+03 0.2921016D+02 0.9286663D+01 0.3163927D+01
EXPONENTS  0.7868272D+01 0.1881288D+01 0.5442493D+00 0.7868272D+01 0.1881288D+01
EXPONENTS  0.5442493D+00 0.7868272D+01 0.1881288D+01 0.5442493D+00 0.7868272D+01
EXPONENTS  0.1881288D+01 0.5442493D+00 0.1687144D+00 0.1687144D+00 0.1687144D+00
EXPONENTS  0.1687144D+00 0.8000000D+00 0.8000000D+00 0.8000000D+00 0.8000000D+00
EXPONENTS  0.8000000D+00 0.8000000D+00 0.3047525D+04 0.4573695D+03 0.1039487D+03
EXPONENTS  0.2921016D+02 0.9286663D+01 0.3163927D+01 0.7868272D+01 0.1881288D+01
EXPONENTS  0.5442493D+00 0.7868272D+01 0.1881288D+01 0.5442493D+00 0.7868272D+01
EXPONENTS  0.1881288D+01 0.5442493D+00 0.7868272D+01 0.1881288D+01 0.5442493D+00
EXPONENTS  0.1687144D+00 0.1687144D+00 0.1687144D+00 0.1687144D+00 0.8000000D+00
EXPONENTS  0.8000000D+00 0.8000000D+00 0.8000000D+00 0.8000000D+00 0.8000000D+00
EXPONENTS  0.1873114D+02 0.2825394D+01 0.6401217D+00 0.1612778D+00 0.1873114D+02
EXPONENTS  0.2825394D+01 0.6401217D+00 0.1612778D+00 0.1873114D+02 0.2825394D+01
EXPONENTS  0.6401217D+00 0.1612778D+00 0.1873114D+02 0.2825394D+01 0.6401217D+00
EXPONENTS  0.1612778D+00 0.1873114D+02 0.2825394D+01 0.6401217D+00 0.1612778D+00
EXPONENTS  0.1873114D+02 0.2825394D+01 0.6401217D+00 0.1612778D+00 0.1873114D+02
EXPONENTS  0.2825394D+01 0.6401217D+00 0.1612778D+00 0.1873114D+02 0.2825394D+01
EXPONENTS  0.6401217D+00 0.1612778D+00 0.1873114D+02 0.2825394D+01 0.6401217D+00
EXPONENTS  0.1612778D+00 0.1873114D+02 0.2825394D+01 0.6401217D+00 0.1612778D+00
EXPONENTS  0.1873114D+02 0.2825394D+01 0.6401217D+00 0.1612778D+00 0.1873114D+02
EXPONENTS  0.2825394D+01 0.6401217D+00 0.1612778D+00
MO    1     MO 0.0        OCC NO =    2.0000000  ORB. ENERGY =   -9.925528
 -0.53397761D+00 -0.98510275D+00 -0.15902634D+01 -0.20700507D+01 -0.17663781D+01
 -0.60988802D+00  0.17487666D-01  0.80600528D-02 -0.22601224D-01 -0.53494777D-06
 -0.41016386D-06 -0.20470051D-06 -0.80957992D-06 -0.62073429D-06 -0.30978992D-06
  0.90725790D-11  0.69562754D-11  0.34716690D-11  0.96885070D-02  0.68086447D-06
  0.71379813D-06  0.33908061D-11 -0.15717977D-07  0.23885944D-06 -0.22314146D-06
 -0.15099666D-06 -0.96460068D-11 -0.19292014D-10 -0.21901822D-03 -0.40405335D-03
 -0.65226828D-03 -0.84905957D-03 -0.72450414D-03 -0.25015391D-03 -0.45160165D-03
 -0.20814288D-03  0.58365421D-03  0.20855877D-04  0.15990958D-04  0.79806087D-05
  0.29471950D-04  0.22597213D-04  0.11277593D-04 -0.50402927D-04 -0.38645752D-04
 -0.19286939D-04 -0.21137287D-02 -0.25773013D-03 -0.36436552D-03  0.62993155D-03
 -0.32960688D-03 -0.16478223D-03  0.49438910D-03  0.46622947D-03 -0.80745537D-03
 -0.11418143D-02 -0.21901829D-03 -0.40405349D-03 -0.65226849D-03 -0.84905985D-03
 -0.72450437D-03 -0.25015399D-03 -0.45160165D-03 -0.20814288D-03  0.58365421D-03
  0.20855898D-04  0.15990974D-04  0.79806166D-05  0.29471970D-04  0.22597228D-04
  0.11277601D-04  0.50402956D-04  0.38645775D-04  0.19286950D-04 -0.21137287D-02
 -0.25773014D-03 -0.36436552D-03 -0.62993155D-03 -0.32960688D-03 -0.16478223D-03
  0.49438910D-03  0.46622951D-03  0.80745542D-03  0.11418143D-02 -0.21886740D-03
 -0.40377512D-03 -0.65181913D-03 -0.84847491D-03 -0.72400524D-03 -0.24998165D-03
 -0.45136891D-03 -0.20803561D-03  0.58335342D-03  0.19621972D-04  0.15044877D-04
  0.75084483D-05 -0.57838556D-04 -0.44346918D-04 -0.22132221D-04 -0.12960827D-11
 -0.99375363D-12 -0.49595271D-12 -0.21140669D-02 -0.25653918D-03  0.72818804D-03
 -0.23119133D-11 -0.32995560D-03  0.82417587D-03 -0.49422027D-03 -0.93058860D-03
 -0.19292014D-11  0.77168055D-11 -0.21928181D-03 -0.40453965D-03 -0.65305331D-03
 -0.85008144D-03 -0.72537610D-03 -0.25045497D-03 -0.45145797D-03 -0.20807666D-03
  0.58346852D-03 -0.61559717D-04 -0.47200068D-04 -0.23556142D-04 -0.66633038D-06
 -0.51089967D-06 -0.25497475D-06 -0.51843309D-11 -0.39750145D-11 -0.19838109D-11
 -0.21144337D-02  0.77226605D-03  0.70264238D-06 -0.13871480D-11  0.98885717D-03
 -0.49444181D-03 -0.49441536D-03  0.13582947D-05  0.38584027D-11 -0.19292014D-11
  0.10934827D-03  0.18547535D-03  0.21115717D-03  0.36446123D-04  0.10925275D-03
  0.18531333D-03  0.21097272D-03  0.35928134D-04  0.10925888D-03  0.18532372D-03
  0.21098455D-03  0.35978650D-04  0.10934827D-03  0.18547535D-03  0.21115718D-03
  0.36446124D-04  0.10925275D-03  0.18531333D-03  0.21097272D-03  0.35928131D-04
  0.10925888D-03  0.18532372D-03  0.21098455D-03  0.35978651D-04  0.10924858D-03
  0.18530625D-03  0.21096466D-03  0.36034078D-04  0.10937618D-03  0.18552269D-03
  0.21121107D-03  0.36418066D-04  0.10924858D-03  0.18530626D-03  0.21096467D-03
  0.36034080D-04  0.10923934D-03  0.18529059D-03  0.21094683D-03  0.36054091D-04
  0.10936452D-03  0.18550291D-03  0.21118855D-03  0.36330069D-04  0.10923934D-03
  0.18529058D-03  0.21094682D-03  0.36054096D-04
MO    2     MO 0.0        OCC NO =    2.0000000  ORB. ENERGY =   -9.898197
  0.28862167D-04  0.53246053D-04  0.85955755D-04  0.11188886D-03  0.95474979D-04
  0.32965221D-04 -0.18429526D-04 -0.84941556D-05  0.23818493D-04 -0.81267916D-04
 -0.62311058D-04 -0.31097586D-04  0.40866065D-03  0.31333495D-03  0.15637610D-03
 -0.16053281D-07 -0.12308632D-07 -0.61428703D-08 -0.97616593D-04  0.99589925D-04
 -0.49831751D-03  0.19634000D-07 -0.23357465D-03  0.95558421D-03 -0.72200956D-03
 -0.11848918D-02  0.46567063D-07  0.65864864D-07  0.16157024D+00  0.29807108D+00
  0.48117980D+00  0.62635318D+00  0.53446836D+00  0.18453911D+00 -0.50417027D-02
 -0.23237172D-02  0.65159439D-02 -0.59062750D-04 -0.45285553D-04 -0.22600665D-04
  0.48688866D-03  0.37331519D-03  0.18631045D-03 -0.71241949D-04 -0.54623786D-04
 -0.27261098D-04 -0.21810127D-02  0.68043943D-04 -0.31933545D-03 -0.10432614D-04
  0.58561073D-04 -0.13769017D-03  0.79129092D-04  0.92969053D-04  0.11789139D-04
  0.12340527D-03  0.16154124D+00  0.29801758D+00  0.48109342D+00  0.62624075D+00
  0.53437242D+00  0.18450598D+00 -0.50408099D-02 -0.23233057D-02  0.65147900D-02
 -0.59066391D-04 -0.45288344D-04 -0.22602058D-04  0.48688356D-03  0.37331128D-03
  0.18630850D-03  0.71197899D-04  0.54590011D-04  0.27244242D-04 -0.21806345D-02
  0.68042831D-04 -0.31933706D-03  0.10455561D-04  0.58556792D-04 -0.13769339D-03
  0.79136598D-04  0.92971945D-04 -0.11791994D-04 -0.12340934D-03 -0.47770068D+00
 -0.88128086D+00 -0.14226625D+01 -0.18518840D+01 -0.15802161D+01 -0.54561074D+00
  0.14638123D-01  0.67467007D-02 -0.18918448D-01 -0.14262832D-03 -0.10935831D-03
 -0.54577461D-04  0.59365397D-03  0.45517603D-03  0.22716474D-03 -0.17533407D-07
 -0.13443499D-07 -0.67092483D-08  0.61518631D-02  0.45681282D-04 -0.26799134D-03
  0.12768697D-07 -0.35474738D-04  0.38343130D-04 -0.28683921D-05 -0.13738321D-04
 -0.39432876D-08 -0.11266536D-07  0.67325745D-01  0.12420516D+00  0.20050591D+00
  0.26099915D+00  0.22271107D+00  0.76896791D-01 -0.21421073D-02 -0.98729573D-03
  0.27684796D-02 -0.13814006D-03 -0.10591699D-03 -0.52860003D-04  0.44629323D-03
  0.34218920D-03  0.17077640D-03 -0.17525631D-07 -0.13437537D-07 -0.67062726D-08
 -0.95667366D-03  0.63574176D-04 -0.32688150D-03  0.12765769D-07 -0.15768920D-05
 -0.94413775D-04  0.95990668D-04  0.23996940D-03 -0.93219010D-08 -0.74756553D-08
  0.63529751D-07  0.10775848D-06  0.12267924D-06  0.49865501D-03 -0.81544163D-05
 -0.13831433D-04 -0.15746600D-04  0.44267242D-03 -0.55670959D-04 -0.94428477D-04
 -0.10750351D-03  0.12083464D-03  0.70042939D-07  0.11880607D-06  0.13525654D-06
  0.49860399D-03 -0.81504373D-05 -0.13824683D-04 -0.15738917D-04  0.44260420D-03
 -0.55666991D-04 -0.94421747D-04 -0.10749584D-03  0.12076640D-03  0.87726760D-04
  0.14880118D-03  0.16940492D-03 -0.10050002D-02  0.79962878D-04  0.13563217D-03
  0.15441246D-03 -0.10590016D-02  0.87724235D-04  0.14879690D-03  0.16940004D-03
 -0.10050174D-02  0.13340362D-04  0.22627777D-04  0.25760929D-04  0.27791358D-03
 -0.42714382D-04 -0.72451673D-04 -0.82483685D-04 -0.10132868D-03  0.13337834D-04
  0.22623489D-04  0.25756047D-04  0.27789646D-03
MO    3     MO 0.0        OCC NO =    2.0000000  ORB. ENERGY =   -9.898188
 -0.60890042D-08 -0.11233233D-07 -0.18133945D-07 -0.23605011D-07 -0.20142200D-07
 -0.69546188D-08  0.39839764D-08  0.18362119D-08 -0.51489285D-08  0.26357138D-07
  0.20208974D-07  0.10085694D-07 -0.10626582D-07 -0.81477860D-08 -0.40663163D-08
 -0.41972934D-03 -0.32182171D-03 -0.16061159D-03  0.20893501D-07 -0.32183066D-07
  0.13013914D-07  0.51165228D-03  0.76377697D-07 -0.59974397D-07 -0.16403300D-07
  0.30768833D-07  0.12126955D-02  0.17146971D-02  0.37745601D+00  0.69634559D+00
  0.11241192D+01  0.14632693D+01  0.12486105D+01  0.43111526D+00 -0.11620659D-01
 -0.53559534D-02  0.15018649D-01  0.47912706D-04  0.36736409D-04  0.18334043D-04
  0.67091814D-04  0.51441727D-04  0.25673027D-04 -0.57407277D-03 -0.44016241D-03
 -0.21967190D-03 -0.49225809D-02  0.14260053D-04  0.20643278D-04  0.29884636D-03
  0.55474645D-04  0.42085291D-04 -0.97559935D-04 -0.37433940D-04 -0.37289508D-04
 -0.52785322D-04 -0.37743844D+00 -0.69631317D+00 -0.11240669D+01 -0.14632012D+01
 -0.12485524D+01 -0.43109519D+00  0.11620147D-01  0.53557174D-02 -0.15017987D-01
 -0.47856469D-04 -0.36693290D-04 -0.18312524D-04 -0.67116890D-04 -0.51460954D-04
 -0.25682623D-04 -0.57407588D-03 -0.44016480D-03 -0.21967309D-03  0.49223839D-02
 -0.14300494D-04 -0.20624256D-04  0.29885002D-03 -0.55494564D-04 -0.42067924D-04
  0.97562488D-04  0.37420738D-04 -0.37303308D-04 -0.52785313D-04  0.25404599D-04
  0.46867396D-04  0.75658611D-04  0.98485041D-04  0.84037472D-04  0.29016124D-04
 -0.76773514D-06 -0.35384858D-06  0.99222811D-06  0.30289453D-07  0.23224022D-07
  0.11590415D-07 -0.15620389D-07 -0.11976719D-07 -0.59772221D-08 -0.45630343D-03
 -0.34986439D-03 -0.17460685D-03 -0.31533930D-06 -0.19740194D-07  0.45552398D-08
  0.33234129D-03 -0.75339427D-08  0.14079056D-08  0.61260371D-08  0.87932998D-08
 -0.10282390D-03 -0.29330638D-03 -0.24502801D-04 -0.45203725D-04 -0.72972926D-04
 -0.94989077D-04 -0.81054359D-04 -0.27986127D-04  0.76883632D-06  0.35435612D-06
 -0.99365128D-06  0.43385073D-07  0.33264909D-07  0.16601521D-07 -0.11708811D-07
 -0.89775703D-08 -0.44804368D-08 -0.45616666D-03 -0.34975952D-03 -0.17455452D-03
  0.33563880D-06 -0.19498060D-07  0.85901449D-08  0.33239095D-03  0.96349511D-09
  0.19647506D-08 -0.29282457D-08 -0.62371080D-08 -0.24256605D-03 -0.19463517D-03
 -0.84809730D-04 -0.14385335D-03 -0.16377198D-03  0.66393274D-03 -0.51725103D-04
 -0.87735559D-04 -0.99883853D-04  0.88792362D-03 -0.51644091D-04 -0.87598148D-04
 -0.99727415D-04  0.88811481D-03  0.84805370D-04  0.14384595D-03  0.16376356D-03
 -0.66389089D-03  0.51714937D-04  0.87718316D-04  0.99864222D-04 -0.88792116D-03
  0.51642634D-04  0.87595676D-04  0.99724602D-04 -0.88805334D-03  0.32913395D-04
  0.55827345D-04  0.63557472D-04  0.22297461D-03 -0.73750790D-08 -0.12509529D-07
 -0.14241660D-07  0.40250550D-07 -0.32922272D-04 -0.55842400D-04 -0.63574612D-04
 -0.22285449D-03  0.32932812D-04  0.55860279D-04  0.63594967D-04  0.22289831D-03
  0.38608849D-08  0.65487912D-08  0.74555688D-08 -0.47483831D-07 -0.32928068D-04
 -0.55852231D-04 -0.63585804D-04 -0.22301314D-03
MO    4     MO 0.0        OCC NO =    2.0000000  ORB. ENERGY =   -9.898178
  0.36319617D-04  0.67003848D-04  0.10816513D-03  0.14079888D-03  0.12014395D-03
  0.41482824D-04 -0.23857412D-04 -0.10995864D-04  0.30833544D-04 -0.40728710D-03
 -0.31228179D-03 -0.15585050D-03 -0.83185445D-04 -0.63781298D-04 -0.31831338D-04
 -0.24372836D-07 -0.18687537D-07 -0.93263908D-08 -0.12438005D-03  0.49692084D-03
  0.10115280D-03  0.29682809D-07 -0.11816098D-02  0.41831772D-03  0.76329212D-03
  0.24370756D-03  0.70421637D-07  0.99539074D-07 -0.22124212D+00 -0.40815610D+00
 -0.65889139D+00 -0.85768089D+00 -0.73186073D+00 -0.25269396D+00  0.67251125D-02
  0.30995996D-02 -0.86915985D-02 -0.46237323D-03 -0.35451833D-03 -0.17692949D-03
 -0.11646758D-03 -0.89299914D-04 -0.44566916D-04  0.43990538D-04  0.33729141D-04
  0.16833205D-04  0.27881896D-02  0.31343400D-03  0.51534695D-04  0.26851135D-04
  0.13812326D-03 -0.59587720D-04 -0.78535538D-04  0.50186105D-04 -0.12173286D-03
 -0.71509912D-04 -0.22128594D+00 -0.40823694D+00 -0.65902189D+00 -0.85785077D+00
 -0.73200569D+00 -0.25274401D+00  0.67264616D-02  0.31002214D-02 -0.86933421D-02
 -0.46237879D-03 -0.35452259D-03 -0.17693162D-03 -0.11647535D-03 -0.89305876D-04
 -0.44569892D-04 -0.44057182D-04 -0.33780240D-04 -0.16858707D-04  0.27887611D-02
  0.31343233D-03  0.51532275D-04 -0.26816440D-04  0.13811681D-03 -0.59592614D-04
 -0.78524196D-04  0.50190469D-04  0.12172849D-03  0.71503784D-04 -0.90044738D-01
 -0.16611805D+00 -0.26816640D+00 -0.34907300D+00 -0.29786465D+00 -0.10284552D+00
  0.26877240D-02  0.12387701D-02 -0.34736397D-02 -0.44553140D-03 -0.34160508D-03
 -0.17048488D-03 -0.89374001D-04 -0.68526288D-04 -0.34199421D-04 -0.26491931D-07
 -0.20312324D-07 -0.10137273D-07  0.10817898D-02  0.31996470D-03  0.82940309D-04
  0.19303705D-07  0.15792048D-03 -0.56884863D-04 -0.10103561D-03 -0.13713982D-03
 -0.59708782D-08 -0.17042565D-07  0.42297374D+00  0.78031847D+00  0.12596777D+01
  0.16397262D+01  0.13991815D+01  0.48310380D+00 -0.13107570D-01 -0.60412699D-02
  0.16940347D-01 -0.63831275D-03 -0.48941754D-03 -0.24425365D-03 -0.89507992D-04
 -0.68629024D-04 -0.34250693D-04 -0.26446568D-07 -0.20277543D-07 -0.10119915D-07
 -0.56098806D-02  0.28403326D-03  0.65204715D-04  0.19275962D-07 -0.23854063D-04
  0.31844774D-04 -0.79907115D-05 -0.49456601D-04 -0.14090887D-07 -0.11310908D-07
  0.21433272D-04  0.36354884D-04  0.41388759D-04 -0.62175984D-03  0.77647953D-04
  0.13170562D-03  0.14994222D-03 -0.24070078D-03  0.32799323D-04  0.55633857D-04
  0.63337193D-04 -0.54393056D-03  0.21443121D-04  0.36371589D-04  0.41407777D-04
 -0.62183690D-03  0.77653961D-04  0.13171581D-03  0.14995382D-03 -0.24080387D-03
  0.32805328D-04  0.55644042D-04  0.63348788D-04 -0.54403368D-03  0.31496931D-05
  0.53424752D-05  0.60822205D-05 -0.31400108D-03  0.59532261D-04  0.10097798D-03
  0.11495988D-03  0.68115191D-04  0.31458689D-05  0.53359888D-05  0.60748359D-05
 -0.31402697D-03 -0.66883642D-04 -0.11344731D-03 -0.12915578D-03  0.89363482D-03
 -0.55941913D-04 -0.94888067D-04 -0.10802673D-03  0.96975316D-03 -0.66887461D-04
 -0.11345379D-03 -0.12916315D-03  0.89360895D-03
MO    5     MO 0.0        OCC NO =    2.0000000  ORB. ENERGY =   -9.898113
  0.35255172D-03  0.65040117D-03  0.10499506D-02  0.13667238D-02  0.11662280D-02
  0.40267057D-03 -0.22859742D-03 -0.10536039D-03  0.29544145D-03  0.48746396D-04
  0.37375629D-04  0.18653059D-04 -0.25510200D-04 -0.19559596D-04 -0.97616091D-05
 -0.35007194D-08 -0.26841285D-08 -0.13395683D-08 -0.11992544D-02 -0.59627031D-04
  0.30956337D-04  0.42492966D-08  0.14158127D-03 -0.12148681D-03 -0.20094467D-04
  0.75032936D-04  0.10060785D-07  0.14202780D-07 -0.25952438D+00 -0.47878070D+00
 -0.77290155D+00 -0.10060883D+01 -0.85849701D+00 -0.29641843D+00  0.71635978D-02
  0.33016971D-02 -0.92583010D-02  0.12134661D-03  0.93040844D-04  0.46433903D-04
  0.69282348D-04  0.53121289D-04  0.26511247D-04 -0.16567425D-03 -0.12702846D-03
 -0.63396104D-04  0.24657907D-02 -0.72366002D-04 -0.27716867D-04  0.81738050D-04
 -0.37728567D-04  0.83988117D-05  0.29329755D-04  0.13400798D-04 -0.34614933D-04
 -0.68130165D-04 -0.25953063D+00 -0.47879223D+00 -0.77292016D+00 -0.10061125D+01
 -0.85851769D+00 -0.29642557D+00  0.71637902D-02  0.33017858D-02 -0.92585497D-02
  0.12134584D-03  0.93040253D-04  0.46433608D-04  0.69281227D-04  0.53120429D-04
  0.26510818D-04  0.16566474D-03  0.12702117D-03  0.63392466D-04  0.24658723D-02
 -0.72366238D-04 -0.27717199D-04 -0.81733103D-04 -0.37729476D-04  0.83981142D-05
  0.29331362D-04  0.13401421D-04  0.34614317D-04  0.68129279D-04 -0.22039281D+00
 -0.40658926D+00 -0.65636203D+00 -0.85438841D+00 -0.72905125D+00 -0.25172391D+00
  0.59586925D-02  0.27463572D-02 -0.77010701D-02  0.12453819D-03  0.95487947D-04
  0.47655178D-04 -0.23351615D-03 -0.17904530D-03 -0.89356154D-04 -0.37716007D-08
 -0.28918231D-08 -0.14432224D-08  0.19546743D-02 -0.70741228D-04  0.11065568D-03
  0.27457823D-08 -0.33037923D-04  0.50091123D-04 -0.17053200D-04 -0.36653952D-04
 -0.85656541D-09 -0.24269353D-08 -0.31849561D+00 -0.58757313D+00 -0.94852649D+00
 -0.12346998D+01 -0.10535717D+01 -0.36377303D+00  0.89792982D-02  0.41385522D-02
 -0.11604929D-01 -0.12676194D-03 -0.97192979D-04 -0.48506109D-04 -0.29203354D-04
 -0.22391271D-04 -0.11174813D-04 -0.38014106D-08 -0.29146794D-08 -0.14546293D-08
  0.32344584D-02  0.67821587D-04  0.20692313D-04  0.27605786D-08  0.59003264D-04
 -0.24075792D-04 -0.34927472D-04 -0.12977915D-04 -0.19928650D-08 -0.16147415D-08
  0.11256715D-03  0.19093518D-03  0.21737300D-03 -0.48061106D-03  0.10736465D-03
  0.18211075D-03  0.20732669D-03 -0.51568185D-03  0.11589308D-03  0.19657658D-03
  0.22379553D-03 -0.45780174D-03  0.11256855D-03  0.19093756D-03  0.21737571D-03
 -0.48062206D-03  0.10736550D-03  0.18211220D-03  0.20732835D-03 -0.51569656D-03
  0.11589393D-03  0.19657803D-03  0.22379718D-03 -0.45781645D-03  0.10713044D-03
  0.18171348D-03  0.20687442D-03 -0.38859132D-03  0.10206148D-03  0.17311558D-03
  0.19708600D-03 -0.42353410D-03  0.10712989D-03  0.18171256D-03  0.20687337D-03
 -0.38859500D-03  0.12055231D-03  0.20447952D-03  0.23279275D-03 -0.61952430D-03
  0.12414770D-03  0.21057799D-03  0.23973564D-03 -0.59584509D-03  0.12055176D-03
  0.20447860D-03  0.23279170D-03 -0.61952801D-03
MO    6     MO 0.0        OCC NO =    2.0000000  ORB. ENERGY =   -0.720289
 -0.75954213D-01 -0.14012330D+00 -0.22620276D+00 -0.29444880D+00 -0.25125372D+00
 -0.86751885D-01 -0.10745773D+00 -0.49527191D-01  0.13887938D+00  0.60422724D-04
  0.46328294D-04  0.23121066D-04  0.32917333D-04  0.25238913D-04  0.12595987D-04
  0.13738477D-09  0.10533788D-09  0.52570988D-10  0.36673485D-01  0.15832486D-05
 -0.17805696D-05  0.81225219D-10 -0.66939953D-06  0.71166604D-05 -0.64472609D-05
  0.31948898D-04  0.26430059D-09  0.52088437D-10 -0.43737170D-01 -0.80688038D-01
 -0.13025569D+00 -0.16955422D+00 -0.14468094D+00 -0.49954858D-01 -0.61670072D-01
 -0.28423692D-01  0.79702980D-01  0.22489103D-01  0.17243211D-01  0.86055708D-02
  0.31777209D-01  0.24364739D-01  0.12159712D-01 -0.55073483D-01 -0.42226837D-01
 -0.21074151D-01  0.22167223D-01  0.42986169D-03  0.60634362D-03 -0.10567490D-02
 -0.16428533D-02 -0.82419006D-03  0.24670434D-02  0.23238018D-02 -0.40252872D-02
 -0.56931536D-02 -0.43737170D-01 -0.80688039D-01 -0.13025569D+00 -0.16955422D+00
 -0.14468094D+00 -0.49954858D-01 -0.61670072D-01 -0.28423693D-01  0.79702980D-01
  0.22489103D-01  0.17243211D-01  0.86055707D-02  0.31777209D-01  0.24364739D-01
  0.12159713D-01  0.55073482D-01  0.42226837D-01  0.21074151D-01  0.22167223D-01
  0.42986164D-03  0.60634367D-03  0.10567490D-02 -0.16428533D-02 -0.82419007D-03
  0.24670434D-02  0.23238017D-02  0.40252872D-02  0.56931538D-02 -0.43743184D-01
 -0.80699133D-01 -0.13027360D+00 -0.16957753D+00 -0.14470083D+00 -0.49961727D-01
 -0.61672961D-01 -0.28425024D-01  0.79706713D-01  0.22521624D-01  0.17268146D-01
  0.86180150D-02 -0.63562327D-01 -0.48735542D-01 -0.24322451D-01  0.38882482D-10
  0.29812609D-10  0.14878581D-10  0.22177698D-01  0.43980041D-03 -0.12181115D-02
 -0.27434704D-10 -0.16416431D-02  0.41086641D-02 -0.24670209D-02 -0.46580598D-02
  0.42442430D-10  0.46300833D-10 -0.43754503D-01 -0.80720015D-01 -0.13030731D+00
 -0.16962141D+00 -0.14473827D+00 -0.49974655D-01 -0.61693748D-01 -0.28434605D-01
  0.79733579D-01 -0.67471232D-01 -0.51732641D-01 -0.25818214D-01  0.51604481D-04
  0.39567027D-04  0.19746720D-04  0.12144295D-08  0.93114715D-09  0.46470769D-09
  0.22177806D-01 -0.12920167D-02  0.60046980D-05  0.32983296D-10  0.49284845D-02
 -0.24636748D-02 -0.24648097D-02 -0.83332104D-05 -0.21414135D-09  0.82955659D-10
  0.89144374D-02  0.15120572D-01  0.17214241D-01  0.14660530D-02  0.89172650D-02
  0.15125368D-01  0.17219701D-01  0.14638799D-02  0.89190058D-02  0.15128321D-01
  0.17223062D-01  0.14633342D-02  0.89144375D-02  0.15120572D-01  0.17214241D-01
  0.14660530D-02  0.89172651D-02  0.15125368D-01  0.17219701D-01  0.14638799D-02
  0.89190057D-02  0.15128321D-01  0.17223062D-01  0.14633342D-02  0.89214119D-02
  0.15132402D-01  0.17227709D-01  0.14630568D-02  0.89105370D-02  0.15113956D-01
  0.17206708D-01  0.14679973D-02  0.89214119D-02  0.15132402D-01  0.17227709D-01
  0.14630568D-02  0.89251492D-02  0.15138741D-01  0.17234925D-01  0.14632638D-02
  0.89139101D-02  0.15119678D-01  0.17213222D-01  0.14659572D-02  0.89251494D-02
  0.15138742D-01  0.17234926D-01  0.14632639D-02
MO    7     MO 0.0        OCC NO =    2.0000000  ORB. ENERGY =   -0.598295
  0.16878759D-04  0.31138594D-04  0.50267414D-04  0.65433244D-04  0.55834311D-04
  0.19278249D-04  0.23778309D-04  0.10959406D-04 -0.30731310D-04  0.10271887D+00
  0.78758285D-01  0.39305904D-01  0.15938465D+00  0.12220600D+00  0.60989357D-01
  0.29671092D-06  0.22749902D-06  0.11353796D-06 -0.13563991D-04  0.29520151D-02
  0.45784010D-02  0.84589824D-08  0.74850218D-02  0.44756825D-02 -0.11960704D-01
 -0.11604022D-01 -0.21674577D-07 -0.30487169D-07  0.52976930D-01  0.97733908D-01
  0.15777304D+00  0.20537364D+00  0.17524572D+00  0.60508145D-01  0.76664462D-01
  0.35334596D-01 -0.99081870D-01  0.21265466D-01  0.16305004D-01  0.81373399D-02
  0.33105419D-01  0.25383125D-01  0.12667959D-01  0.13973156D-02  0.10713726D-02
  0.53469000D-03 -0.33708671D-01  0.11890859D-02  0.18419247D-02 -0.66130468D-04
 -0.61655297D-03  0.72342841D-03 -0.10687544D-03  0.34610741D-02 -0.32686629D-02
 -0.49207392D-02  0.52977164D-01  0.97734340D-01  0.15777374D+00  0.20537455D+00
  0.17524649D+00  0.60508412D-01  0.76664800D-01  0.35334752D-01 -0.99082308D-01
  0.21265464D-01  0.16305002D-01  0.81373389D-02  0.33105415D-01  0.25383122D-01
  0.12667957D-01 -0.13971962D-02 -0.10712810D-02 -0.53464429D-03 -0.33708820D-01
  0.11890860D-02  0.18419248D-02  0.66137354D-04 -0.61655896D-03  0.72342320D-03
 -0.10686424D-03  0.34610771D-02  0.32686736D-02  0.49207541D-02 -0.56207085D-01
 -0.10369302D+00 -0.16739292D+00 -0.21789586D+00 -0.18593095D+00 -0.64197500D-01
 -0.81333548D-01 -0.37486575D-01  0.10511624D+00  0.22504475D-01  0.17254997D-01
  0.86114529D-02  0.32266619D-01  0.24739987D-01  0.12346987D-01  0.62961106D-07
  0.48274564D-07  0.24092391D-07  0.35771493D-01  0.11424022D-02  0.18862552D-02
  0.33071149D-08  0.22586469D-02 -0.41544299D-02  0.18957830D-02  0.35039596D-03
  0.29613241D-08 -0.68293728D-08 -0.49729888D-01 -0.91743639D-01 -0.14810288D+00
 -0.19278596D+00 -0.16450463D+00 -0.56799503D-01 -0.71966142D-01 -0.33169144D-01
  0.93009717D-01  0.20218615D-01  0.15502346D-01  0.77367571D-02  0.33985005D-01
  0.26057536D-01  0.13004537D-01  0.64227379D-07  0.49245461D-07  0.24576937D-07
  0.31642502D-01  0.12375687D-02  0.18101153D-02  0.33373239D-08 -0.31502593D-02
  0.14479157D-02  0.17023436D-02 -0.39924994D-02 -0.76570002D-08  0.62506124D-09
 -0.12877685D-01 -0.21842989D-01 -0.24867476D-01 -0.29846176D-02 -0.15933230D-01
 -0.27025773D-01 -0.30767893D-01 -0.40711398D-02 -0.16125272D-01 -0.27351511D-01
 -0.31138735D-01 -0.41400155D-02 -0.12877756D-01 -0.21843110D-01 -0.24867613D-01
 -0.29846358D-02 -0.15933294D-01 -0.27025881D-01 -0.30768017D-01 -0.40711552D-02
 -0.16125336D-01 -0.27351620D-01 -0.31138859D-01 -0.41400312D-02  0.16914137D-01
  0.28689576D-01  0.32662075D-01  0.43208920D-02  0.13855274D-01  0.23501165D-01
  0.26755251D-01  0.32389209D-02  0.16914144D-01  0.28689588D-01  0.32662089D-01
  0.43208945D-02  0.15146999D-01  0.25692175D-01  0.29249639D-01  0.38873311D-02
  0.11893750D-01  0.20174051D-01  0.22967448D-01  0.27350787D-02  0.15147006D-01
  0.25692187D-01  0.29249653D-01  0.38873337D-02
MO    8     MO 0.0        OCC NO =    2.0000000  ORB. ENERGY =   -0.598187
 -0.35934404D-10 -0.66293191D-10 -0.10701791D-09 -0.13930553D-09 -0.11886967D-09
 -0.41042848D-10 -0.10955835D-08 -0.50495367D-09  0.14159424D-08 -0.24377929D-05
 -0.18691442D-05 -0.93283399D-06  0.19214750D-05  0.14732646D-05  0.73526230D-06
 -0.18948620D+00 -0.14528594D+00 -0.72507868D-01 -0.14364024D-08 -0.70128190D-07
  0.55264283D-07 -0.54461262D-02 -0.17794109D-06  0.18824063D-06 -0.10299539D-07
 -0.14012368D-06  0.13832826D-01  0.19564807D-01  0.74992369D-01  0.13834885D+00
  0.22333824D+00  0.29072006D+00  0.24807198D+00  0.85653305D-01  0.10853349D+00
  0.50023008D-01 -0.14026970D+00 -0.75415250D-03 -0.57823607D-03 -0.28858033D-03
 -0.10150116D-02 -0.77824617D-03 -0.38839939D-03 -0.38446670D-01 -0.29478456D-01
 -0.14711816D-01 -0.47723821D-01  0.40964522D-04  0.60672407D-04 -0.22477688D-02
 -0.19710003D-02 -0.16522886D-02  0.36232888D-02  0.88802997D-03 -0.34043656D-02
 -0.48089380D-02 -0.74992279D-01 -0.13834868D+00 -0.22333797D+00 -0.29071971D+00
 -0.24807168D+00 -0.85653202D-01 -0.10853336D+00 -0.50022947D-01  0.14026953D+00
  0.75311459D-03  0.57744027D-03  0.28818317D-03  0.10158283D-02  0.77887238D-03
  0.38871191D-03 -0.38446672D-01 -0.29478458D-01 -0.14711816D-01  0.47723764D-01
 -0.41019591D-04 -0.60628854D-04 -0.22477686D-02  0.19709610D-02  0.16523277D-02
 -0.36232888D-02 -0.88805113D-03 -0.34044678D-02 -0.48088531D-02 -0.12720865D-05
 -0.23467948D-05 -0.37884596D-05 -0.49314491D-05 -0.42080149D-05 -0.14529266D-05
 -0.18409883D-05 -0.84851018D-06  0.23793105D-05 -0.50507825D-06 -0.38726181D-06
 -0.19327079D-06  0.37390950D-06  0.28668997D-06  0.14307839D-06 -0.40257712D-01
 -0.30867048D-01 -0.15404820D-01  0.80973697D-06 -0.28208270D-07  0.23597699D-07
 -0.21409349D-02  0.15195568D-07 -0.53927716D-07  0.38732148D-07  0.10854266D-06
 -0.18706928D-02  0.43522798D-02  0.11812706D-05  0.21792541D-05  0.35179965D-05
  0.45793866D-05  0.39075993D-05  0.13492003D-05  0.17098007D-05  0.78804594D-06
 -0.22097625D-05 -0.48256270D-06 -0.36999833D-06 -0.18465510D-06  0.40724345D-06