 ***
GAUSSIAN             75 MOL ORBITALS    644 PRIMITIVES       38 NUCLEI
  N    1    (CENTRE  1)  -4.26822502  2.88962264 -0.21880862  CHARGE =  7.0
  C    2    (CENTRE  2)  -6.75756599  1.77284446 -0.22487238  CHARGE =  6.0
  C    3    (CENTRE  3)  -6.93282767 -1.14767967 -0.05386513  CHARGE =  6.0
  N    4    (CENTRE  4)  -4.59912584 -2.55501229  0.14005085  CHARGE =  7.0
  C    5    (CENTRE  5)  -2.27462642 -1.29341654  0.24542184  CHARGE =  6.0
  C    6    (CENTRE  6)  -2.11215018  1.35644727 -0.27195521  CHARGE =  6.0
  C    7    (CENTRE  7)   0.01182098 -2.58488937  0.84297305  CHARGE =  6.0
  C    8    (CENTRE  8)   2.39295661 -1.46776790  0.53008930  CHARGE =  6.0
  C    9    (CENTRE  9)   2.55700055  1.01341380 -0.40004492  CHARGE =  6.0
  C   10    (CENTRE 10)   0.31440896  2.38376789 -0.81088500  CHARGE =  6.0
  C   11    (CENTRE 11)  -4.13619276  5.66060287 -0.17033264  CHARGE =  6.0
  C   12    (CENTRE 12)  -6.09751174  7.13187681  1.43765013  CHARGE =  6.0
  C   13    (CENTRE 13)  -4.82530754 -5.31788379  0.22734976  CHARGE =  6.0
  C   14    (CENTRE 14)  -6.88266231 -6.60234486 -1.42230080  CHARGE =  6.0
  O   15    (CENTRE 15)   4.54263130 -2.82699022  1.11711771  CHARGE =  8.0
  C   16    (CENTRE 16)   6.84594681 -1.79650592  0.59693920  CHARGE =  6.0
  C   17    (CENTRE 17)   7.07274552  0.66399234 -0.31093362  CHARGE =  6.0
  C   18    (CENTRE 18)   4.95642700  2.00741662 -0.80978962  CHARGE =  6.0
  O   19    (CENTRE 19)   8.79161727 -3.37583512  1.03672558  CHARGE =  8.0
  C   20    (CENTRE 20)   9.22110237  1.73483521 -0.68372808  CHARGE =  6.0
  N   21    (CENTRE 21)  11.14080370  2.69466099 -1.01421111  CHARGE =  7.0
  H   22    (CENTRE 22)  -7.85306120  2.49943894  1.36786523  CHARGE =  1.0
  H   23    (CENTRE 23)  -7.70846718  2.40418927 -1.95175628  CHARGE =  1.0
  H   24    (CENTRE 24)  -7.96476331 -1.75280261 -1.73783684  CHARGE =  1.0
  H   25    (CENTRE 25)  -8.09347099 -1.64641274  1.58617710  CHARGE =  1.0
  H   26    (CENTRE 26)   0.00290769 -4.38452387  1.52552346  CHARGE =  1.0
  H   27    (CENTRE 27)   0.49041525  4.17380989 -1.50611772  CHARGE =  1.0
  H   28    (CENTRE 28)  -2.33736393  6.30206159  0.60601743  CHARGE =  1.0
  H   29    (CENTRE 29)  -4.25276937  6.34382889 -2.11710146  CHARGE =  1.0
  H   30    (CENTRE 30)  -5.57760306  9.12724667  1.53406380  CHARGE =  1.0
  H   31    (CENTRE 31)  -7.98173618  7.00712750  0.60886986  CHARGE =  1.0
  H   32    (CENTRE 32)  -6.14500594  6.37579342  3.35699248  CHARGE =  1.0
  H   33    (CENTRE 33)  -5.12884996 -5.87522223  2.19381466  CHARGE =  1.0
  H   34    (CENTRE 34)  -3.09498423 -6.22864217 -0.41661188  CHARGE =  1.0
  H   35    (CENTRE 35)  -6.63798905 -8.65125163 -1.38944140  CHARGE =  1.0
  H   36    (CENTRE 36)  -8.77460400 -6.18080757 -0.71769902  CHARGE =  1.0
  H   37    (CENTRE 37)  -6.72545327 -5.95765685 -3.37687108  CHARGE =  1.0
  H   38    (CENTRE 38)   5.07325492  3.77327160 -1.47614767  CHARGE =  1.0
CENTRE ASSIGNMENTS    1  1  1  1  1  1  1  1  1  1  1  1  1  1  1  1  1  1  1  1
CENTRE ASSIGNMENTS    1  1  1  1  1  2  2  2  2  2  2  2  2  2  2  2  2  2  2  2
CENTRE ASSIGNMENTS    2  2  2  2  2  2  2  2  2  2  3  3  3  3  3  3  3  3  3  3
CENTRE ASSIGNMENTS    3  3  3  3  3  3  3  3  3  3  3  3  3  3  3  4  4  4  4  4
CENTRE ASSIGNMENTS    4  4  4  4  4  4  4  4  4  4  4  4  4  4  4  4  4  4  4  4
CENTRE ASSIGNMENTS    5  5  5  5  5  5  5  5  5  5  5  5  5  5  5  5  5  5  5  5
CENTRE ASSIGNMENTS    5  5  5  5  5  6  6  6  6  6  6  6  6  6  6  6  6  6  6  6
CENTRE ASSIGNMENTS    6  6  6  6  6  6  6  6  6  6  7  7  7  7  7  7  7  7  7  7
CENTRE ASSIGNMENTS    7  7  7  7  7  7  7  7  7  7  7  7  7  7  7  8  8  8  8  8
CENTRE ASSIGNMENTS    8  8  8  8  8  8  8  8  8  8  8  8  8  8  8  8  8  8  8  8
CENTRE ASSIGNMENTS    9  9  9  9  9  9  9  9  9  9  9  9  9  9  9  9  9  9  9  9
CENTRE ASSIGNMENTS    9  9  9  9  9 10 10 10 10 10 10 10 10 10 10 10 10 10 10 10
CENTRE ASSIGNMENTS   10 10 10 10 10 10 10 10 10 10 11 11 11 11 11 11 11 11 11 11
CENTRE ASSIGNMENTS   11 11 11 11 11 11 11 11 11 11 11 11 11 11 11 12 12 12 12 12
CENTRE ASSIGNMENTS   12 12 12 12 12 12 12 12 12 12 12 12 12 12 12 12 12 12 12 12
CENTRE ASSIGNMENTS   13 13 13 13 13 13 13 13 13 13 13 13 13 13 13 13 13 13 13 13
CENTRE ASSIGNMENTS   13 13 13 13 13 14 14 14 14 14 14 14 14 14 14 14 14 14 14 14
CENTRE ASSIGNMENTS   14 14 14 14 14 14 14 14 14 14 15 15 15 15 15 15 15 15 15 15
CENTRE ASSIGNMENTS   15 15 15 15 15 15 15 15 15 15 15 15 15 15 15 16 16 16 16 16
CENTRE ASSIGNMENTS   16 16 16 16 16 16 16 16 16 16 16 16 16 16 16 16 16 16 16 16
CENTRE ASSIGNMENTS   17 17 17 17 17 17 17 17 17 17 17 17 17 17 17 17 17 17 17 17
CENTRE ASSIGNMENTS   17 17 17 17 17 18 18 18 18 18 18 18 18 18 18 18 18 18 18 18
CENTRE ASSIGNMENTS   18 18 18 18 18 18 18 18 18 18 19 19 19 19 19 19 19 19 19 19
CENTRE ASSIGNMENTS   19 19 19 19 19 19 19 19 19 19 19 19 19 19 19 20 20 20 20 20
CENTRE ASSIGNMENTS   20 20 20 20 20 20 20 20 20 20 20 20 20 20 20 20 20 20 20 20
CENTRE ASSIGNMENTS   21 21 21 21 21 21 21 21 21 21 21 21 21 21 21 21 21 21 21 21
CENTRE ASSIGNMENTS   21 21 21 21 21 22 22 22 22 22 22 22 23 23 23 23 23 23 23 24
CENTRE ASSIGNMENTS   24 24 24 24 24 24 25 25 25 25 25 25 25 26 26 26 26 26 26 26
CENTRE ASSIGNMENTS   27 27 27 27 27 27 27 28 28 28 28 28 28 28 29 29 29 29 29 29
CENTRE ASSIGNMENTS   29 30 30 30 30 30 30 30 31 31 31 31 31 31 31 32 32 32 32 32
CENTRE ASSIGNMENTS   32 32 33 33 33 33 33 33 33 34 34 34 34 34 34 34 35 35 35 35
CENTRE ASSIGNMENTS   35 35 35 36 36 36 36 36 36 36 37 37 37 37 37 37 37 38 38 38
CENTRE ASSIGNMENTS   38 38 38 38
TYPE ASSIGNMENTS      1  1  1  1  1  1  1  2  2  2  3  3  3  4  4  4  2  3  4  5
TYPE ASSIGNMENTS      6  7  8  9 10  1  1  1  1  1  1  1  2  2  2  3  3  3  4  4
TYPE ASSIGNMENTS      4  2  3  4  5  6  7  8  9 10  1  1  1  1  1  1  1  2  2  2
TYPE ASSIGNMENTS      3  3  3  4  4  4  2  3  4  5  6  7  8  9 10  1  1  1  1  1
TYPE ASSIGNMENTS      1  1  2  2  2  3  3  3  4  4  4  2  3  4  5  6  7  8  9 10
TYPE ASSIGNMENTS      1  1  1  1  1  1  1  2  2  2  3  3  3  4  4  4  2  3  4  5
TYPE ASSIGNMENTS      6  7  8  9 10  1  1  1  1  1  1  1  2  2  2  3  3  3  4  4
TYPE ASSIGNMENTS      4  2  3  4  5  6  7  8  9 10  1  1  1  1  1  1  1  2  2  2
TYPE ASSIGNMENTS      3  3  3  4  4  4  2  3  4  5  6  7  8  9 10  1  1  1  1  1
TYPE ASSIGNMENTS      1  1  2  2  2  3  3  3  4  4  4  2  3  4  5  6  7  8  9 10
TYPE ASSIGNMENTS      1  1  1  1  1  1  1  2  2  2  3  3  3  4  4  4  2  3  4  5
TYPE ASSIGNMENTS      6  7  8  9 10  1  1  1  1  1  1  1  2  2  2  3  3  3  4  4
TYPE ASSIGNMENTS      4  2  3  4  5  6  7  8  9 10  1  1  1  1  1  1  1  2  2  2
TYPE ASSIGNMENTS      3  3  3  4  4  4  2  3  4  5  6  7  8  9 10  1  1  1  1  1
TYPE ASSIGNMENTS      1  1  2  2  2  3  3  3  4  4  4  2  3  4  5  6  7  8  9 10
TYPE ASSIGNMENTS      1  1  1  1  1  1  1  2  2  2  3  3  3  4  4  4  2  3  4  5
TYPE ASSIGNMENTS      6  7  8  9 10  1  1  1  1  1  1  1  2  2  2  3  3  3  4  4
TYPE ASSIGNMENTS      4  2  3  4  5  6  7  8  9 10  1  1  1  1  1  1  1  2  2  2
TYPE ASSIGNMENTS      3  3  3  4  4  4  2  3  4  5  6  7  8  9 10  1  1  1  1  1
TYPE ASSIGNMENTS      1  1  2  2  2  3  3  3  4  4  4  2  3  4  5  6  7  8  9 10
TYPE ASSIGNMENTS      1  1  1  1  1  1  1  2  2  2  3  3  3  4  4  4  2  3  4  5
TYPE ASSIGNMENTS      6  7  8  9 10  1  1  1  1  1  1  1  2  2  2  3  3  3  4  4
TYPE ASSIGNMENTS      4  2  3  4  5  6  7  8  9 10  1  1  1  1  1  1  1  2  2  2
TYPE ASSIGNMENTS      3  3  3  4  4  4  2  3  4  5  6  7  8  9 10  1  1  1  1  1
TYPE ASSIGNMENTS      1  1  2  2  2  3  3  3  4  4  4  2  3  4  5  6  7  8  9 10
TYPE ASSIGNMENTS      1  1  1  1  1  1  1  2  2  2  3  3  3  4  4  4  2  3  4  5
TYPE ASSIGNMENTS      6  7  8  9 10  1  1  1  1  2  3  4  1  1  1  1  2  3  4  1
TYPE ASSIGNMENTS      1  1  1  2  3  4  1  1  1  1  2  3  4  1  1  1  1  2  3  4
TYPE ASSIGNMENTS      1  1  1  1  2  3  4  1  1  1  1  2  3  4  1  1  1  1  2  3
TYPE ASSIGNMENTS      4  1  1  1  1  2  3  4  1  1  1  1  2  3  4  1  1  1  1  2
TYPE ASSIGNMENTS      3  4  1  1  1  1  2  3  4  1  1  1  1  2  3  4  1  1  1  1
TYPE ASSIGNMENTS      2  3  4  1  1  1  1  2  3  4  1  1  1  1  2  3  4  1  1  1
TYPE ASSIGNMENTS      1  2  3  4
EXPONENTS  0.1712842D+04 0.2576481D+03 0.5845825D+02 0.1619837D+02 0.5005260D+01
EXPONENTS  0.5873186D+00 0.1876459D+00 0.1357147D+02 0.2925737D+01 0.7992775D+00
EXPONENTS  0.1357147D+02 0.2925737D+01 0.7992775D+00 0.1357147D+02 0.2925737D+01
EXPONENTS  0.7992775D+00 0.2195435D+00 0.2195435D+00 0.2195435D+00 0.1000000D+01
EXPONENTS  0.1000000D+01 0.1000000D+01 0.1000000D+01 0.1000000D+01 0.1000000D+01
EXPONENTS  0.1238402D+04 0.1862900D+03 0.4225118D+02 0.1167656D+02 0.3593051D+01
EXPONENTS  0.4024515D+00 0.1309018D+00 0.9468097D+01 0.2010355D+01 0.5477100D+00
EXPONENTS  0.9468097D+01 0.2010355D+01 0.5477100D+00 0.9468097D+01 0.2010355D+01
EXPONENTS  0.5477100D+00 0.1526861D+00 0.1526861D+00 0.1526861D+00 0.8000000D+00
EXPONENTS  0.8000000D+00 0.8000000D+00 0.8000000D+00 0.8000000D+00 0.8000000D+00
EXPONENTS  0.1238402D+04 0.1862900D+03 0.4225118D+02 0.1167656D+02 0.3593051D+01
EXPONENTS  0.4024515D+00 0.1309018D+00 0.9468097D+01 0.2010355D+01 0.5477100D+00
EXPONENTS  0.9468097D+01 0.2010355D+01 0.5477100D+00 0.9468097D+01 0.2010355D+01
EXPONENTS  0.5477100D+00 0.1526861D+00 0.1526861D+00 0.1526861D+00 0.8000000D+00
EXPONENTS  0.8000000D+00 0.8000000D+00 0.8000000D+00 0.8000000D+00 0.8000000D+00
EXPONENTS  0.1712842D+04 0.2576481D+03 0.5845825D+02 0.1619837D+02 0.5005260D+01
EXPONENTS  0.5873186D+00 0.1876459D+00 0.1357147D+02 0.2925737D+01 0.7992775D+00
EXPONENTS  0.1357147D+02 0.2925737D+01 0.7992775D+00 0.1357147D+02 0.2925737D+01
EXPONENTS  0.7992775D+00 0.2195435D+00 0.2195435D+00 0.2195435D+00 0.1000000D+01
EXPONENTS  0.1000000D+01 0.1000000D+01 0.1000000D+01 0.1000000D+01 0.1000000D+01
EXPONENTS  0.1238402D+04 0.1862900D+03 0.4225118D+02 0.1167656D+02 0.3593051D+01
EXPONENTS  0.4024515D+00 0.1309018D+00 0.9468097D+01 0.2010355D+01 0.5477100D+00
EXPONENTS  0.9468097D+01 0.2010355D+01 0.5477100D+00 0.9468097D+01 0.2010355D+01
EXPONENTS  0.5477100D+00 0.1526861D+00 0.1526861D+00 0.1526861D+00 0.8000000D+00
EXPONENTS  0.8000000D+00 0.8000000D+00 0.8000000D+00 0.8000000D+00 0.8000000D+00
EXPONENTS  0.1238402D+04 0.1862900D+03 0.4225118D+02 0.1167656D+02 0.3593051D+01
EXPONENTS  0.4024515D+00 0.1309018D+00 0.9468097D+01 0.2010355D+01 0.5477100D+00
EXPONENTS  0.9468097D+01 0.2010355D+01 0.5477100D+00 0.9468097D+01 0.2010355D+01
EXPONENTS  0.5477100D+00 0.1526861D+00 0.1526861D+00 0.1526861D+00 0.8000000D+00
EXPONENTS  0.8000000D+00 0.8000000D+00 0.8000000D+00 0.8000000D+00 0.8000000D+00
EXPONENTS  0.1238402D+04 0.1862900D+03 0.4225118D+02 0.1167656D+02 0.3593051D+01
EXPONENTS  0.4024515D+00 0.1309018D+00 0.9468097D+01 0.2010355D+01 0.5477100D+00
EXPONENTS  0.9468097D+01 0.2010355D+01 0.5477100D+00 0.9468097D+01 0.2010355D+01
EXPONENTS  0.5477100D+00 0.1526861D+00 0.1526861D+00 0.1526861D+00 0.8000000D+00
EXPONENTS  0.8000000D+00 0.8000000D+00 0.8000000D+00 0.8000000D+00 0.8000000D+00
EXPONENTS  0.1238402D+04 0.1862900D+03 0.4225118D+02 0.1167656D+02 0.3593051D+01
EXPONENTS  0.4024515D+00 0.1309018D+00 0.9468097D+01 0.2010355D+01 0.5477100D+00
EXPONENTS  0.9468097D+01 0.2010355D+01 0.5477100D+00 0.9468097D+01 0.2010355D+01
EXPONENTS  0.5477100D+00 0.1526861D+00 0.1526861D+00 0.1526861D+00 0.8000000D+00
EXPONENTS  0.8000000D+00 0.8000000D+00 0.8000000D+00 0.8000000D+00 0.8000000D+00
EXPONENTS  0.1238402D+04 0.1862900D+03 0.4225118D+02 0.1167656D+02 0.3593051D+01
EXPONENTS  0.4024515D+00 0.1309018D+00 0.9468097D+01 0.2010355D+01 0.5477100D+00
EXPONENTS  0.9468097D+01 0.2010355D+01 0.5477100D+00 0.9468097D+01 0.2010355D+01
EXPONENTS  0.5477100D+00 0.1526861D+00 0.1526861D+00 0.1526861D+00 0.8000000D+00
EXPONENTS  0.8000000D+00 0.8000000D+00 0.8000000D+00 0.8000000D+00 0.8000000D+00
EXPONENTS  0.1238402D+04 0.1862900D+03 0.4225118D+02 0.1167656D+02 0.3593051D+01
EXPONENTS  0.4024515D+00 0.1309018D+00 0.9468097D+01 0.2010355D+01 0.5477100D+00
EXPONENTS  0.9468097D+01 0.2010355D+01 0.5477100D+00 0.9468097D+01 0.2010355D+01
EXPONENTS  0.5477100D+00 0.1526861D+00 0.1526861D+00 0.1526861D+00 0.8000000D+00
EXPONENTS  0.8000000D+00 0.8000000D+00 0.8000000D+00 0.8000000D+00 0.8000000D+00
EXPONENTS  0.1238402D+04 0.1862900D+03 0.4225118D+02 0.1167656D+02 0.3593051D+01
EXPONENTS  0.4024515D+00 0.1309018D+00 0.9468097D+01 0.2010355D+01 0.5477100D+00
EXPONENTS  0.9468097D+01 0.2010355D+01 0.5477100D+00 0.9468097D+01 0.2010355D+01
EXPONENTS  0.5477100D+00 0.1526861D+00 0.1526861D+00 0.1526861D+00 0.8000000D+00
EXPONENTS  0.8000000D+00 0.8000000D+00 0.8000000D+00 0.8000000D+00 0.8000000D+00
EXPONENTS  0.1238402D+04 0.1862900D+03 0.4225118D+02 0.1167656D+02 0.3593051D+01
EXPONENTS  0.4024515D+00 0.1309018D+00 0.9468097D+01 0.2010355D+01 0.5477100D+00
EXPONENTS  0.9468097D+01 0.2010355D+01 0.5477100D+00 0.9468097D+01 0.2010355D+01
EXPONENTS  0.5477100D+00 0.1526861D+00 0.1526861D+00 0.1526861D+00 0.8000000D+00
EXPONENTS  0.8000000D+00 0.8000000D+00 0.8000000D+00 0.8000000D+00 0.8000000D+00
EXPONENTS  0.1238402D+04 0.1862900D+03 0.4225118D+02 0.1167656D+02 0.3593051D+01
EXPONENTS  0.4024515D+00 0.1309018D+00 0.9468097D+01 0.2010355D+01 0.5477100D+00
EXPONENTS  0.9468097D+01 0.2010355D+01 0.5477100D+00 0.9468097D+01 0.2010355D+01
EXPONENTS  0.5477100D+00 0.1526861D+00 0.1526861D+00 0.1526861D+00 0.8000000D+00
EXPONENTS  0.8000000D+00 0.8000000D+00 0.8000000D+00 0.8000000D+00 0.8000000D+00
EXPONENTS  0.1238402D+04 0.1862900D+03 0.4225118D+02 0.1167656D+02 0.3593051D+01
EXPONENTS  0.4024515D+00 0.1309018D+00 0.9468097D+01 0.2010355D+01 0.5477100D+00
EXPONENTS  0.9468097D+01 0.2010355D+01 0.5477100D+00 0.9468097D+01 0.2010355D+01
EXPONENTS  0.5477100D+00 0.1526861D+00 0.1526861D+00 0.1526861D+00 0.8000000D+00
EXPONENTS  0.8000000D+00 0.8000000D+00 0.8000000D+00 0.8000000D+00 0.8000000D+00
EXPONENTS  0.2266177D+04 0.3408701D+03 0.7736314D+02 0.2147964D+02 0.6658943D+01
EXPONENTS  0.8097598D+00 0.2553077D+00 0.1772150D+02 0.3863551D+01 0.1048092D+01
EXPONENTS  0.1772150D+02 0.3863551D+01 0.1048092D+01 0.1772150D+02 0.3863551D+01
EXPONENTS  0.1048092D+01 0.2764154D+00 0.2764154D+00 0.2764154D+00 0.1200000D+01
EXPONENTS  0.1200000D+01 0.1200000D+01 0.1200000D+01 0.1200000D+01 0.1200000D+01
EXPONENTS  0.1238402D+04 0.1862900D+03 0.4225118D+02 0.1167656D+02 0.3593051D+01
EXPONENTS  0.4024515D+00 0.1309018D+00 0.9468097D+01 0.2010355D+01 0.5477100D+00
EXPONENTS  0.9468097D+01 0.2010355D+01 0.5477100D+00 0.9468097D+01 0.2010355D+01
EXPONENTS  0.5477100D+00 0.1526861D+00 0.1526861D+00 0.1526861D+00 0.8000000D+00
EXPONENTS  0.8000000D+00 0.8000000D+00 0.8000000D+00 0.8000000D+00 0.8000000D+00
EXPONENTS  0.1238402D+04 0.1862900D+03 0.4225118D+02 0.1167656D+02 0.3593051D+01
EXPONENTS  0.4024515D+00 0.1309018D+00 0.9468097D+01 0.2010355D+01 0.5477100D+00
EXPONENTS  0.9468097D+01 0.2010355D+01 0.5477100D+00 0.9468097D+01 0.2010355D+01
EXPONENTS  0.5477100D+00 0.1526861D+00 0.1526861D+00 0.1526861D+00 0.8000000D+00
EXPONENTS  0.8000000D+00 0.8000000D+00 0.8000000D+00 0.8000000D+00 0.8000000D+00
EXPONENTS  0.1238402D+04 0.1862900D+03 0.4225118D+02 0.1167656D+02 0.3593051D+01
EXPONENTS  0.4024515D+00 0.1309018D+00 0.9468097D+01 0.2010355D+01 0.5477100D+00
EXPONENTS  0.9468097D+01 0.2010355D+01 0.5477100D+00 0.9468097D+01 0.2010355D+01
EXPONENTS  0.5477100D+00 0.1526861D+00 0.1526861D+00 0.1526861D+00 0.8000000D+00
EXPONENTS  0.8000000D+00 0.8000000D+00 0.8000000D+00 0.8000000D+00 0.8000000D+00
EXPONENTS  0.2266177D+04 0.3408701D+03 0.7736314D+02 0.2147964D+02 0.6658943D+01
EXPONENTS  0.8097598D+00 0.2553077D+00 0.1772150D+02 0.3863551D+01 0.1048092D+01
EXPONENTS  0.1772150D+02 0.3863551D+01 0.1048092D+01 0.1772150D+02 0.3863551D+01
EXPONENTS  0.1048092D+01 0.2764154D+00 0.2764154D+00 0.2764154D+00 0.1200000D+01
EXPONENTS  0.1200000D+01 0.1200000D+01 0.1200000D+01 0.1200000D+01 0.1200000D+01
EXPONENTS  0.1238402D+04 0.1862900D+03 0.4225118D+02 0.1167656D+02 0.3593051D+01
EXPONENTS  0.4024515D+00 0.1309018D+00 0.9468097D+01 0.2010355D+01 0.5477100D+00
EXPONENTS  0.9468097D+01 0.2010355D+01 0.5477100D+00 0.9468097D+01 0.2010355D+01
EXPONENTS  0.5477100D+00 0.1526861D+00 0.1526861D+00 0.1526861D+00 0.8000000D+00
EXPONENTS  0.8000000D+00 0.8000000D+00 0.8000000D+00 0.8000000D+00 0.8000000D+00
EXPONENTS  0.1712842D+04 0.2576481D+03 0.5845825D+02 0.1619837D+02 0.5005260D+01
EXPONENTS  0.5873186D+00 0.1876459D+00 0.1357147D+02 0.2925737D+01 0.7992775D+00
EXPONENTS  0.1357147D+02 0.2925737D+01 0.7992775D+00 0.1357147D+02 0.2925737D+01
EXPONENTS  0.7992775D+00 0.2195435D+00 0.2195435D+00 0.2195435D+00 0.1000000D+01
EXPONENTS  0.1000000D+01 0.1000000D+01 0.1000000D+01 0.1000000D+01 0.1000000D+01
EXPONENTS  0.1301070D+02 0.1962257D+01 0.4445380D+00 0.1219496D+00 0.8000000D+00
EXPONENTS  0.8000000D+00 0.8000000D+00 0.1301070D+02 0.1962257D+01 0.4445380D+00
EXPONENTS  0.1219496D+00 0.8000000D+00 0.8000000D+00 0.8000000D+00 0.1301070D+02
EXPONENTS  0.1962257D+01 0.4445380D+00 0.1219496D+00 0.8000000D+00 0.8000000D+00
EXPONENTS  0.8000000D+00 0.1301070D+02 0.1962257D+01 0.4445380D+00 0.1219496D+00
EXPONENTS  0.8000000D+00 0.8000000D+00 0.8000000D+00 0.1301070D+02 0.1962257D+01
EXPONENTS  0.4445380D+00 0.1219496D+00 0.8000000D+00 0.8000000D+00 0.8000000D+00
EXPONENTS  0.1301070D+02 0.1962257D+01 0.4445380D+00 0.1219496D+00 0.8000000D+00
EXPONENTS  0.8000000D+00 0.8000000D+00 0.1301070D+02 0.1962257D+01 0.4445380D+00
EXPONENTS  0.1219496D+00 0.8000000D+00 0.8000000D+00 0.8000000D+00 0.1301070D+02
EXPONENTS  0.1962257D+01 0.4445380D+00 0.1219496D+00 0.8000000D+00 0.8000000D+00
EXPONENTS  0.8000000D+00 0.1301070D+02 0.1962257D+01 0.4445380D+00 0.1219496D+00
EXPONENTS  0.8000000D+00 0.8000000D+00 0.8000000D+00 0.1301070D+02 0.1962257D+01
EXPONENTS  0.4445380D+00 0.1219496D+00 0.8000000D+00 0.8000000D+00 0.8000000D+00
EXPONENTS  0.1301070D+02 0.1962257D+01 0.4445380D+00 0.1219496D+00 0.8000000D+00
EXPONENTS  0.8000000D+00 0.8000000D+00 0.1301070D+02 0.1962257D+01 0.4445380D+00
EXPONENTS  0.1219496D+00 0.8000000D+00 0.8000000D+00 0.8000000D+00 0.1301070D+02
EXPONENTS  0.1962257D+01 0.4445380D+00 0.1219496D+00 0.8000000D+00 0.8000000D+00
EXPONENTS  0.8000000D+00 0.1301070D+02 0.1962257D+01 0.4445380D+00 0.1219496D+00
EXPONENTS  0.8000000D+00 0.8000000D+00 0.8000000D+00 0.1301070D+02 0.1962257D+01
EXPONENTS  0.4445380D+00 0.1219496D+00 0.8000000D+00 0.8000000D+00 0.8000000D+00
EXPONENTS  0.1301070D+02 0.1962257D+01 0.4445380D+00 0.1219496D+00 0.8000000D+00
EXPONENTS  0.8000000D+00 0.8000000D+00 0.1301070D+02 0.1962257D+01 0.4445380D+00
EXPONENTS  0.1219496D+00 0.8000000D+00 0.8000000D+00 0.8000000D+00
MO    1     MO 0.0        OCC NO =    2.0000000  ORB. ENERGY =  -18.847888
  0.66480470D-05  0.11974901D-04  0.17550314D-04  0.17335735D-04  0.68431162D-05
 -0.50029972D-04  0.15265400D-03 -0.35072876D-04 -0.28037120D-04 -0.13025216D-04
 -0.43411400D-04 -0.34702903D-04 -0.16121941D-04  0.94924157D-04  0.75881999D-04
  0.35252530D-04  0.99005776D-04  0.61811092D-04 -0.60067458D-04  0.13719645D-04
 -0.29490618D-04  0.15770972D-04  0.43200260D-05 -0.39003475D-04  0.37858151D-04
 -0.16727304D-05 -0.30089438D-05 -0.43863554D-05 -0.42958001D-05 -0.16894482D-05
  0.13900912D-04  0.41686018D-05  0.17338666D-04  0.13747281D-04  0.65771456D-05
  0.11463066D-04  0.90887037D-05  0.43483308D-05  0.20940808D-04  0.16603306D-04
  0.79435604D-05  0.14502844D-04  0.90111908D-05 -0.24560333D-05 -0.12682553D-05
  0.44753966D-05 -0.32071413D-05  0.12482592D-04  0.40180883D-04  0.16116836D-05
 -0.54695957D-05 -0.98388277D-05 -0.14342772D-04 -0.14046669D-04 -0.55242608D-05
  0.26272108D-04 -0.32197594D-04  0.42313511D-04  0.33549048D-04  0.16050953D-04
  0.32271468D-04  0.25587029D-04  0.12241665D-04  0.11328814D-04  0.89822591D-05
  0.42974043D-05 -0.14535993D-04  0.24436684D-04 -0.91860848D-05  0.34808783D-04
 -0.48329143D-04  0.13520360D-04  0.54423970D-04  0.13118056D-04  0.11151001D-04
 -0.12016167D-04 -0.21644313D-04 -0.31721725D-04 -0.31333877D-04 -0.12368750D-04
  0.98606534D-04 -0.18650476D-03  0.94085388D-04  0.75211491D-04  0.34941031D-04
  0.10589364D-03  0.84650964D-04  0.39326331D-04  0.42643664D-04  0.34089178D-04
  0.15836822D-04 -0.18364273D-03 -0.12837153D-03 -0.85925107D-05 -0.88652066D-04
  0.53011886D-04  0.35640179D-04 -0.16793992D-03 -0.14372680D-04 -0.41580786D-04
 -0.32041605D-04 -0.57637136D-04 -0.84021830D-04 -0.82287219D-04 -0.32361840D-04
  0.20357956D-03  0.12855589D-02  0.27252251D-03  0.21607450D-03  0.10337705D-03
 -0.76878310D-04 -0.60954386D-04 -0.29162557D-04  0.34306484D-04  0.27200529D-04
  0.13013616D-04  0.27690856D-03 -0.28011581D-03  0.62491996D-04  0.11239592D-03
 -0.12541300D-03  0.13017078D-04  0.14110658D-03  0.35186752D-04  0.14110621D-03
 -0.88716313D-05 -0.15958483D-04 -0.23263838D-04 -0.22783561D-04 -0.89602976D-05
  0.14257323D-04 -0.10185565D-02  0.63687815D-04  0.50496059D-04  0.24158954D-04
 -0.37301128D-04 -0.29574888D-04 -0.14149586D-04 -0.21712244D-04 -0.17214953D-04
 -0.82361924D-05 -0.35361443D-03 -0.25303553D-03  0.13219976D-03 -0.27772260D-05
  0.10442170D-04 -0.76649444D-05 -0.10799448D-03  0.80227200D-04 -0.17585252D-04
  0.13846729D-04  0.24907797D-04  0.36309900D-04  0.35560291D-04  0.13985118D-04
 -0.14813496D-03 -0.23928820D-02  0.15090064D-04  0.11964435D-04  0.57241742D-05
  0.17998216D-03  0.14270218D-03  0.68273353D-04 -0.81224580D-04 -0.64400407D-04
 -0.30811245D-04  0.21709798D-03 -0.12734057D-02  0.50449842D-03  0.46481793D-03
 -0.44890437D-03 -0.15913561D-04 -0.15663133D-03  0.72974364D-04  0.39277920D-03
  0.62497198D-04  0.11242132D-03  0.16388470D-03  0.16050134D-03  0.63121817D-04
 -0.11953875D-02  0.18195735D-02 -0.20857493D-03 -0.16537248D-03 -0.79119561D-04
  0.25768004D-04  0.20430637D-04  0.97746799D-05  0.43266546D-04  0.34304679D-04
  0.16412472D-04 -0.30211207D-02  0.19608243D-02 -0.84970856D-03  0.28705221D-04
  0.21711640D-03 -0.24582162D-03 -0.15390142D-02  0.63959692D-03 -0.50028193D-03
  0.16601651D-04  0.29863410D-04  0.43534057D-04  0.42635307D-04  0.16767573D-04
 -0.23835617D-03 -0.37558414D-03 -0.58736252D-03 -0.46570121D-03 -0.22280657D-03
 -0.37743248D-03 -0.29925431D-03 -0.14317297D-03  0.17735159D-03  0.14061648D-03
  0.67275487D-04  0.28724116D-02  0.13510684D-02 -0.51549490D-03  0.81265899D-04
 -0.50779906D-04 -0.30485993D-04 -0.82823203D-03  0.32979343D-03 -0.70957035D-04
 -0.55012517D-04 -0.98957713D-04 -0.14425783D-03 -0.14127966D-03 -0.55562332D-04
  0.40508008D-03  0.17697170D-02  0.35986296D-03  0.28532398D-03  0.13650826D-03
 -0.29344167D-03 -0.23266064D-03 -0.11131240D-03  0.50394892D-04  0.39956520D-04
  0.19116496D-04 -0.40603609D-03 -0.62694085D-03  0.23810221D-03 -0.27409341D-03
  0.20059408D-03  0.73499331D-04 -0.69382468D-04  0.13274481D-04 -0.64744215D-04
  0.59627776D-05  0.10725974D-04  0.15636030D-04  0.15313228D-04  0.60223717D-05
 -0.38281328D-04  0.79152214D-05  0.45123912D-05  0.35777326D-05  0.17117034D-05
  0.44813850D-04  0.35531488D-04  0.16999417D-04 -0.80778836D-05 -0.64046991D-05
 -0.30642159D-05  0.69887604D-05  0.19387918D-04  0.25298858D-04  0.18980792D-04
 -0.15834937D-04 -0.31458551D-05 -0.12470267D-05 -0.27969812D-05 -0.23316984D-04
  0.16961457D-05  0.30510637D-05  0.44477567D-05  0.43559338D-05  0.17130976D-05
 -0.73174526D-05 -0.15209457D-04 -0.11041575D-04 -0.87545161D-05 -0.41884447D-05
  0.90440988D-05  0.71707806D-05  0.34307342D-05  0.24718509D-05  0.19598526D-05
  0.93765710D-06 -0.25873541D-05 -0.29290782D-05 -0.58338331D-06 -0.45329139D-05
 -0.17111922D-05  0.62441060D-05  0.58780175D-06 -0.54051735D-05  0.31547104D-05
 -0.59510465D-05 -0.10704872D-04 -0.15605267D-04 -0.15283100D-04 -0.60105233D-05
  0.58547126D-04 -0.11422340D-03  0.11500723D-03  0.91185600D-04  0.43626151D-04
  0.18074232D-04  0.14330488D-04  0.68561707D-05  0.41629792D-04  0.33006949D-04
  0.15791596D-04 -0.10209318D-03 -0.80247776D-04 -0.47860337D-04  0.16118396D-04
 -0.32523222D-04  0.16404826D-04  0.84651395D-04  0.43806982D-04  0.19357802D-04
 -0.83935666D-06 -0.15098530D-05 -0.22010222D-05 -0.21555826D-05 -0.84774549D-06
  0.20828521D-04 -0.11475889D-03 -0.89553311D-05 -0.71003995D-05 -0.33970616D-05
 -0.11948301D-04 -0.94734312D-05 -0.45323970D-05 -0.62146944D-05 -0.49274351D-05
 -0.23574449D-05 -0.27120184D-04 -0.11627392D-04 -0.37374011D-04 -0.31236457D-05
  0.72613027D-05 -0.41376571D-05 -0.12854416D-04 -0.33047708D-04 -0.21946955D-04
 -0.12465515D+01 -0.22477403D+01 -0.33080641D+01 -0.32903139D+01 -0.13046476D+01
 -0.28545964D-01  0.12240175D-01  0.57341870D-05  0.45461669D-05  0.19799967D-05
 -0.65914066D-02 -0.52257861D-02 -0.22759919D-02  0.29382500D-02  0.23294976D-02
  0.10145685D-02 -0.42521144D-03  0.20259437D-02 -0.90607781D-03 -0.91322844D-05
  0.18875697D-03 -0.17962469D-03 -0.29730902D-03  0.14045974D-03 -0.41352401D-03
 -0.51402358D-04 -0.92463679D-04 -0.13479101D-03 -0.13200828D-03 -0.51916091D-04
 -0.53236133D-03 -0.94021198D-03  0.44475150D-03  0.35262944D-03  0.16870937D-03
 -0.89360905D-04 -0.70851442D-04 -0.33897630D-04  0.47435642D-04  0.37610224D-04
  0.17993952D-04  0.13556408D-02  0.51168106D-03 -0.29389808D-03  0.50115874D-03
 -0.20272746D-03 -0.29843128D-03  0.16601733D-02 -0.71222691D-03 -0.31293250D-03
 -0.40392079D-04 -0.72658150D-04 -0.10591905D-03 -0.10373238D-03 -0.40795772D-04
  0.25392115D-04  0.52878098D-02  0.12531493D-03  0.99358251D-04  0.47536212D-04
 -0.40879265D-03 -0.32411880D-03 -0.15506895D-03  0.15218221D-03  0.12066047D-03
  0.57727885D-04  0.50941472D-03  0.13002666D-02 -0.41096782D-03  0.25120105D-03
 -0.77092546D-04 -0.17410851D-03  0.10706166D-02 -0.34852339D-03 -0.17092874D-03
  0.58638598D-04  0.10548038D-03  0.15376640D-03  0.15059193D-03  0.59224653D-04
 -0.47120983D-03 -0.42945943D-02  0.16198218D-03  0.12843056D-03  0.61445348D-04
 -0.25784859D-04 -0.20444001D-04 -0.97810736D-05  0.20002280D-04  0.15859176D-04
  0.75875448D-05  0.60259852D-03  0.47320666D-03 -0.22108021D-03 -0.14010207D-03
  0.21457603D-03 -0.74473959D-04  0.39615999D-05  0.47834509D-05 -0.23417948D-03
  0.36906950D-03  0.66549390D-03  0.97942654D-03  0.97417120D-03  0.38627017D-03
  0.33938178D-03 -0.40885734D-03 -0.41595527D-03 -0.32977684D-03 -0.14362804D-03
  0.77332068D-03  0.61310259D-03  0.26702519D-03 -0.32597543D-03 -0.25843920D-03
 -0.11255829D-03 -0.20390906D-03 -0.40946535D-03  0.18446028D-03  0.48697635D-03
 -0.40576551D-03 -0.81210832D-04 -0.40486582D-03  0.69678382D-04  0.32506621D-03
 -0.10238091D-03 -0.18416500D-03 -0.26847067D-03 -0.26292816D-03 -0.10340414D-03
  0.98612556D-03 -0.26523648D-02  0.70689544D-04  0.56047509D-04  0.26814948D-04
 -0.33906766D-03 -0.26883605D-03 -0.12861989D-03  0.88141847D-04  0.69884890D-04
  0.33435200D-04  0.28356312D-02  0.13265693D-02 -0.46627574D-03 -0.49862931D-03
  0.16967120D-03  0.32895811D-03 -0.29829015D-03  0.12472218D-03  0.14957077D-03
 -0.42203419D-04 -0.76019582D-04 -0.11141366D-03 -0.11005146D-03 -0.43441766D-04
  0.37179234D-03 -0.28245295D-02 -0.20226954D-03 -0.16169348D-03 -0.75118002D-04
 -0.14616495D-03 -0.11684369D-03 -0.54282119D-04  0.49932157D-04  0.39915571D-04
  0.18543592D-04  0.64628817D-03  0.34087230D-03 -0.11504072D-03 -0.30952721D-04
  0.37195030D-04 -0.62423087D-05  0.78036046D-04 -0.22939209D-04 -0.31683871D-04
  0.35737719D-05  0.60626881D-05  0.69020513D-05  0.18065718D-05  0.91230928D-05
 -0.35479569D-05 -0.69344773D-05 -0.28663929D-05 -0.48626622D-05 -0.55358851D-05
  0.30522274D-06 -0.11412974D-04  0.52846267D-05 -0.56342692D-06 -0.12176896D-05
 -0.20657368D-05 -0.23517327D-05  0.11406346D-05 -0.53313162D-05 -0.21273681D-04
 -0.12144465D-04  0.35335123D-05  0.59943901D-05  0.68242976D-05  0.64440407D-05
  0.50300670D-05 -0.90805320D-05  0.11256548D-04 -0.10636939D-03 -0.18044924D-03
 -0.20543196D-03 -0.22574122D-03  0.21201217D-03  0.31816483D-03 -0.12642706D-03
  0.22230833D-04  0.37713264D-04  0.42934567D-04  0.71493395D-04  0.12694357D-03
  0.15762231D-03 -0.47241962D-04 -0.49178390D-06 -0.83428166D-06 -0.94978577D-06
 -0.34545400D-04  0.53035852D-05  0.63077670D-05 -0.64631175D-05  0.52083032D-05
  0.88355716D-05  0.10058833D-04  0.55033247D-05 -0.87975961D-06 -0.39122839D-05
 -0.15568497D-05  0.71334944D-06  0.12101542D-05  0.13776969D-05  0.48959212D-05
 -0.48504347D-05 -0.15498594D-05  0.42314345D-05  0.69103860D-06  0.11723052D-05
  0.13346078D-05  0.95402939D-06  0.41297900D-05  0.35796226D-05 -0.12301181D-06
 -0.15317704D-05 -0.25985559D-05 -0.29583191D-05  0.40732896D-05 -0.16902678D-05
  0.64086286D-05  0.88484877D-06  0.16075982D-04  0.27271932D-04  0.31047660D-04
  0.32538398D-04  0.84700710D-04  0.53503061D-04  0.59999883D-05  0.14624228D-04
  0.24809118D-04  0.28243876D-04  0.52915905D-04 -0.35675615D-04  0.17132968D-04
  0.22039584D-04  0.62800272D-05  0.10653687D-04  0.12128662D-04  0.19319491D-05
 -0.43821965D-05 -0.94939320D-05  0.97703352D-05  0.52379469D-05  0.88858603D-05
  0.10116084D-04  0.11973604D-04  0.85916426D-05  0.48662130D-05  0.15418184D-04
  0.18017402D-05  0.30565434D-05  0.34797138D-05 -0.57317627D-06  0.14514859D-04
  0.12960172D-04  0.27669514D-05  0.19134705D-04  0.32460870D-04  0.36954993D-04
  0.33998339D-03 -0.75921690D-04  0.58086952D-04  0.47764662D-05
MO    2     MO 0.0        OCC NO =    2.0000000  ORB. ENERGY =  -18.731591
  0.13255479D-05  0.23876642D-05  0.34993407D-05  0.34565559D-05  0.13644425D-05
  0.80539028D-06 -0.96924361D-04  0.43148114D-04  0.34492433D-04  0.16024163D-04
  0.11093625D-03  0.88682003D-04  0.41199032D-04 -0.25897064D-05 -0.20702012D-05
 -0.96175417D-06 -0.11123149D-03 -0.14969730D-03  0.36298768D-04 -0.18056335D-04
  0.18239724D-04 -0.18338917D-06 -0.46682440D-04  0.15515958D-04  0.10964193D-04
  0.63133225D-05  0.11356542D-04  0.16555254D-04  0.16213475D-04  0.63764201D-05
 -0.46152105D-04 -0.17681736D-04 -0.69089969D-04 -0.54779257D-04 -0.26208175D-04
 -0.14827618D-04 -0.11756350D-04 -0.56246195D-05 -0.24976207D-05 -0.19802847D-05
 -0.94743246D-06 -0.87232514D-05 -0.57964527D-05 -0.59186129D-05 -0.15706804D-04