 CN(C)C1=CC=C(\C=C\C(=O)C2=CC=CC=C2O)C=C1
GAUSSIAN             71 MOL ORBITALS    619 PRIMITIVES       37 NUCLEI
  C    1    (CENTRE  1)  -4.83207593 -2.94583792  0.00045093  CHARGE =  6.0
  C    2    (CENTRE  2)  -2.91560923 -1.05747292 -0.00009173  CHARGE =  6.0
  C    3    (CENTRE  3)  -3.75589470  1.50092850 -0.00059956  CHARGE =  6.0
  C    4    (CENTRE  4)  -6.31399336  2.13362804 -0.00054250  CHARGE =  6.0
  C    5    (CENTRE  5)  -8.23403030  0.22049327  0.00004539  CHARGE =  6.0
  C    6    (CENTRE  6)  -7.40393246 -2.35304811  0.00052344  CHARGE =  6.0
  C    7    (CENTRE  7)  -0.26976775 -1.81264107 -0.00012351  CHARGE =  6.0
  C    8    (CENTRE  8)   1.83762384 -0.30743576 -0.00029632  CHARGE =  6.0
  C    9    (CENTRE  9)   4.39320728 -1.42198444 -0.00022442  CHARGE =  6.0
  C   10    (CENTRE 10)   6.67789975  0.21604718  0.00007469  CHARGE =  6.0
  O   11    (CENTRE 11)   4.65190380 -3.80504553 -0.00039208  CHARGE =  8.0
  C   12    (CENTRE 12)  11.35050251  0.52071096  0.00006555  CHARGE =  6.0
  C   13    (CENTRE 13)  11.17900229  3.15512169  0.00035487  CHARGE =  6.0
  C   14    (CENTRE 14)   8.79244299  4.36833865  0.00055952  CHARGE =  6.0
  C   15    (CENTRE 15)   6.59245471  2.90554387  0.00042320  CHARGE =  6.0
  C   16    (CENTRE 16)   9.12952830 -0.99001959 -0.00007573  CHARGE =  6.0
  O   17    (CENTRE 17)   9.37557613 -3.50851902 -0.00034160  CHARGE =  8.0
  N   18    (CENTRE 18) -10.78084497  0.84206520  0.00011161  CHARGE =  7.0
  C   19    (CENTRE 19) -12.69637097 -1.15035038  0.00062484  CHARGE =  6.0
  C   20    (CENTRE 20) -11.57087511  3.49078352 -0.00048946  CHARGE =  6.0
  H   21    (CENTRE 21)  -4.26302772 -4.94665922  0.00084146  CHARGE =  1.0
  H   22    (CENTRE 22)  -2.36186678  3.04164911 -0.00106814  CHARGE =  1.0
  H   23    (CENTRE 23)  -6.83606124  4.13821525 -0.00096067  CHARGE =  1.0
  H   24    (CENTRE 24)  -8.77945077 -3.90150761  0.00092183  CHARGE =  1.0
  H   25    (CENTRE 25)   0.09532723 -3.86479073  0.00001564  CHARGE =  1.0
  H   26    (CENTRE 26)   1.65622134  1.75748809 -0.00043898  CHARGE =  1.0
  H   27    (CENTRE 27)  13.18319281 -0.45635916 -0.00012675  CHARGE =  1.0
  H   28    (CENTRE 28)  12.91910688  4.29493968  0.00040863  CHARGE =  1.0
  H   29    (CENTRE 29)   8.66938008  6.44204002  0.00091256  CHARGE =  1.0
  H   30    (CENTRE 30)   4.75572171  3.87008646  0.00063908  CHARGE =  1.0
  H   31    (CENTRE 31)   7.55516159 -4.17806152 -0.00047285  CHARGE =  1.0
  H   32    (CENTRE 32) -14.59562761 -0.28555119  0.00059369  CHARGE =  1.0
  H   33    (CENTRE 33) -12.55094881 -2.38544836 -1.69510549  CHARGE =  1.0
  H   34    (CENTRE 34) -12.55070634 -2.38478445  1.69681059  CHARGE =  1.0
  H   35    (CENTRE 35) -13.65535040  3.59088148 -0.00048739  CHARGE =  1.0
  H   36    (CENTRE 36) -10.87786498  4.52215739 -1.69694783  CHARGE =  1.0
  H   37    (CENTRE 37) -10.87780286  4.52293190  1.69547764  CHARGE =  1.0
CENTRE ASSIGNMENTS    1  1  1  1  1  1  1  1  1  1  1  1  1  1  1  1  1  1  1  1
CENTRE ASSIGNMENTS    1  1  1  1  1  2  2  2  2  2  2  2  2  2  2  2  2  2  2  2
CENTRE ASSIGNMENTS    2  2  2  2  2  2  2  2  2  2  3  3  3  3  3  3  3  3  3  3
CENTRE ASSIGNMENTS    3  3  3  3  3  3  3  3  3  3  3  3  3  3  3  4  4  4  4  4
CENTRE ASSIGNMENTS    4  4  4  4  4  4  4  4  4  4  4  4  4  4  4  4  4  4  4  4
CENTRE ASSIGNMENTS    5  5  5  5  5  5  5  5  5  5  5  5  5  5  5  5  5  5  5  5
CENTRE ASSIGNMENTS    5  5  5  5  5  6  6  6  6  6  6  6  6  6  6  6  6  6  6  6
CENTRE ASSIGNMENTS    6  6  6  6  6  6  6  6  6  6  7  7  7  7  7  7  7  7  7  7
CENTRE ASSIGNMENTS    7  7  7  7  7  7  7  7  7  7  7  7  7  7  7  8  8  8  8  8
CENTRE ASSIGNMENTS    8  8  8  8  8  8  8  8  8  8  8  8  8  8  8  8  8  8  8  8
CENTRE ASSIGNMENTS    9  9  9  9  9  9  9  9  9  9  9  9  9  9  9  9  9  9  9  9
CENTRE ASSIGNMENTS    9  9  9  9  9 10 10 10 10 10 10 10 10 10 10 10 10 10 10 10
CENTRE ASSIGNMENTS   10 10 10 10 10 10 10 10 10 10 11 11 11 11 11 11 11 11 11 11
CENTRE ASSIGNMENTS   11 11 11 11 11 11 11 11 11 11 11 11 11 11 11 12 12 12 12 12
CENTRE ASSIGNMENTS   12 12 12 12 12 12 12 12 12 12 12 12 12 12 12 12 12 12 12 12
CENTRE ASSIGNMENTS   13 13 13 13 13 13 13 13 13 13 13 13 13 13 13 13 13 13 13 13
CENTRE ASSIGNMENTS   13 13 13 13 13 14 14 14 14 14 14 14 14 14 14 14 14 14 14 14
CENTRE ASSIGNMENTS   14 14 14 14 14 14 14 14 14 14 15 15 15 15 15 15 15 15 15 15
CENTRE ASSIGNMENTS   15 15 15 15 15 15 15 15 15 15 15 15 15 15 15 16 16 16 16 16
CENTRE ASSIGNMENTS   16 16 16 16 16 16 16 16 16 16 16 16 16 16 16 16 16 16 16 16
CENTRE ASSIGNMENTS   17 17 17 17 17 17 17 17 17 17 17 17 17 17 17 17 17 17 17 17
CENTRE ASSIGNMENTS   17 17 17 17 17 18 18 18 18 18 18 18 18 18 18 18 18 18 18 18
CENTRE ASSIGNMENTS   18 18 18 18 18 18 18 18 18 18 19 19 19 19 19 19 19 19 19 19
CENTRE ASSIGNMENTS   19 19 19 19 19 19 19 19 19 19 19 19 19 19 19 20 20 20 20 20
CENTRE ASSIGNMENTS   20 20 20 20 20 20 20 20 20 20 20 20 20 20 20 20 20 20 20 20
CENTRE ASSIGNMENTS   21 21 21 21 21 21 21 22 22 22 22 22 22 22 23 23 23 23 23 23
CENTRE ASSIGNMENTS   23 24 24 24 24 24 24 24 25 25 25 25 25 25 25 26 26 26 26 26
CENTRE ASSIGNMENTS   26 26 27 27 27 27 27 27 27 28 28 28 28 28 28 28 29 29 29 29
CENTRE ASSIGNMENTS   29 29 29 30 30 30 30 30 30 30 31 31 31 31 31 31 31 32 32 32
CENTRE ASSIGNMENTS   32 32 32 32 33 33 33 33 33 33 33 34 34 34 34 34 34 34 35 35
CENTRE ASSIGNMENTS   35 35 35 35 35 36 36 36 36 36 36 36 37 37 37 37 37 37 37
TYPE ASSIGNMENTS      1  1  1  1  1  1  1  2  2  2  3  3  3  4  4  4  2  3  4  5
TYPE ASSIGNMENTS      6  7  8  9 10  1  1  1  1  1  1  1  2  2  2  3  3  3  4  4
TYPE ASSIGNMENTS      4  2  3  4  5  6  7  8  9 10  1  1  1  1  1  1  1  2  2  2
TYPE ASSIGNMENTS      3  3  3  4  4  4  2  3  4  5  6  7  8  9 10  1  1  1  1  1
TYPE ASSIGNMENTS      1  1  2  2  2  3  3  3  4  4  4  2  3  4  5  6  7  8  9 10
TYPE ASSIGNMENTS      1  1  1  1  1  1  1  2  2  2  3  3  3  4  4  4  2  3  4  5
TYPE ASSIGNMENTS      6  7  8  9 10  1  1  1  1  1  1  1  2  2  2  3  3  3  4  4
TYPE ASSIGNMENTS      4  2  3  4  5  6  7  8  9 10  1  1  1  1  1  1  1  2  2  2
TYPE ASSIGNMENTS      3  3  3  4  4  4  2  3  4  5  6  7  8  9 10  1  1  1  1  1
TYPE ASSIGNMENTS      1  1  2  2  2  3  3  3  4  4  4  2  3  4  5  6  7  8  9 10
TYPE ASSIGNMENTS      1  1  1  1  1  1  1  2  2  2  3  3  3  4  4  4  2  3  4  5
TYPE ASSIGNMENTS      6  7  8  9 10  1  1  1  1  1  1  1  2  2  2  3  3  3  4  4
TYPE ASSIGNMENTS      4  2  3  4  5  6  7  8  9 10  1  1  1  1  1  1  1  2  2  2
TYPE ASSIGNMENTS      3  3  3  4  4  4  2  3  4  5  6  7  8  9 10  1  1  1  1  1
TYPE ASSIGNMENTS      1  1  2  2  2  3  3  3  4  4  4  2  3  4  5  6  7  8  9 10
TYPE ASSIGNMENTS      1  1  1  1  1  1  1  2  2  2  3  3  3  4  4  4  2  3  4  5
TYPE ASSIGNMENTS      6  7  8  9 10  1  1  1  1  1  1  1  2  2  2  3  3  3  4  4
TYPE ASSIGNMENTS      4  2  3  4  5  6  7  8  9 10  1  1  1  1  1  1  1  2  2  2
TYPE ASSIGNMENTS      3  3  3  4  4  4  2  3  4  5  6  7  8  9 10  1  1  1  1  1
TYPE ASSIGNMENTS      1  1  2  2  2  3  3  3  4  4  4  2  3  4  5  6  7  8  9 10
TYPE ASSIGNMENTS      1  1  1  1  1  1  1  2  2  2  3  3  3  4  4  4  2  3  4  5
TYPE ASSIGNMENTS      6  7  8  9 10  1  1  1  1  1  1  1  2  2  2  3  3  3  4  4
TYPE ASSIGNMENTS      4  2  3  4  5  6  7  8  9 10  1  1  1  1  1  1  1  2  2  2
TYPE ASSIGNMENTS      3  3  3  4  4  4  2  3  4  5  6  7  8  9 10  1  1  1  1  1
TYPE ASSIGNMENTS      1  1  2  2  2  3  3  3  4  4  4  2  3  4  5  6  7  8  9 10
TYPE ASSIGNMENTS      1  1  1  1  2  3  4  1  1  1  1  2  3  4  1  1  1  1  2  3
TYPE ASSIGNMENTS      4  1  1  1  1  2  3  4  1  1  1  1  2  3  4  1  1  1  1  2
TYPE ASSIGNMENTS      3  4  1  1  1  1  2  3  4  1  1  1  1  2  3  4  1  1  1  1
TYPE ASSIGNMENTS      2  3  4  1  1  1  1  2  3  4  1  1  1  1  2  3  4  1  1  1
TYPE ASSIGNMENTS      1  2  3  4  1  1  1  1  2  3  4  1  1  1  1  2  3  4  1  1
TYPE ASSIGNMENTS      1  1  2  3  4  1  1  1  1  2  3  4  1  1  1  1  2  3  4
EXPONENTS  0.1238402D+04 0.1862900D+03 0.4225118D+02 0.1167656D+02 0.3593051D+01
EXPONENTS  0.4024515D+00 0.1309018D+00 0.9468097D+01 0.2010355D+01 0.5477100D+00
EXPONENTS  0.9468097D+01 0.2010355D+01 0.5477100D+00 0.9468097D+01 0.2010355D+01
EXPONENTS  0.5477100D+00 0.1526861D+00 0.1526861D+00 0.1526861D+00 0.8000000D+00
EXPONENTS  0.8000000D+00 0.8000000D+00 0.8000000D+00 0.8000000D+00 0.8000000D+00
EXPONENTS  0.1238402D+04 0.1862900D+03 0.4225118D+02 0.1167656D+02 0.3593051D+01
EXPONENTS  0.4024515D+00 0.1309018D+00 0.9468097D+01 0.2010355D+01 0.5477100D+00
EXPONENTS  0.9468097D+01 0.2010355D+01 0.5477100D+00 0.9468097D+01 0.2010355D+01
EXPONENTS  0.5477100D+00 0.1526861D+00 0.1526861D+00 0.1526861D+00 0.8000000D+00
EXPONENTS  0.8000000D+00 0.8000000D+00 0.8000000D+00 0.8000000D+00 0.8000000D+00
EXPONENTS  0.1238402D+04 0.1862900D+03 0.4225118D+02 0.1167656D+02 0.3593051D+01
EXPONENTS  0.4024515D+00 0.1309018D+00 0.9468097D+01 0.2010355D+01 0.5477100D+00
EXPONENTS  0.9468097D+01 0.2010355D+01 0.5477100D+00 0.9468097D+01 0.2010355D+01
EXPONENTS  0.5477100D+00 0.1526861D+00 0.1526861D+00 0.1526861D+00 0.8000000D+00
EXPONENTS  0.8000000D+00 0.8000000D+00 0.8000000D+00 0.8000000D+00 0.8000000D+00
EXPONENTS  0.1238402D+04 0.1862900D+03 0.4225118D+02 0.1167656D+02 0.3593051D+01
EXPONENTS  0.4024515D+00 0.1309018D+00 0.9468097D+01 0.2010355D+01 0.5477100D+00
EXPONENTS  0.9468097D+01 0.2010355D+01 0.5477100D+00 0.9468097D+01 0.2010355D+01
EXPONENTS  0.5477100D+00 0.1526861D+00 0.1526861D+00 0.1526861D+00 0.8000000D+00
EXPONENTS  0.8000000D+00 0.8000000D+00 0.8000000D+00 0.8000000D+00 0.8000000D+00
EXPONENTS  0.1238402D+04 0.1862900D+03 0.4225118D+02 0.1167656D+02 0.3593051D+01
EXPONENTS  0.4024515D+00 0.1309018D+00 0.9468097D+01 0.2010355D+01 0.5477100D+00
EXPONENTS  0.9468097D+01 0.2010355D+01 0.5477100D+00 0.9468097D+01 0.2010355D+01
EXPONENTS  0.5477100D+00 0.1526861D+00 0.1526861D+00 0.1526861D+00 0.8000000D+00
EXPONENTS  0.8000000D+00 0.8000000D+00 0.8000000D+00 0.8000000D+00 0.8000000D+00
EXPONENTS  0.1238402D+04 0.1862900D+03 0.4225118D+02 0.1167656D+02 0.3593051D+01
EXPONENTS  0.4024515D+00 0.1309018D+00 0.9468097D+01 0.2010355D+01 0.5477100D+00
EXPONENTS  0.9468097D+01 0.2010355D+01 0.5477100D+00 0.9468097D+01 0.2010355D+01
EXPONENTS  0.5477100D+00 0.1526861D+00 0.1526861D+00 0.1526861D+00 0.8000000D+00
EXPONENTS  0.8000000D+00 0.8000000D+00 0.8000000D+00 0.8000000D+00 0.8000000D+00
EXPONENTS  0.1238402D+04 0.1862900D+03 0.4225118D+02 0.1167656D+02 0.3593051D+01
EXPONENTS  0.4024515D+00 0.1309018D+00 0.9468097D+01 0.2010355D+01 0.5477100D+00
EXPONENTS  0.9468097D+01 0.2010355D+01 0.5477100D+00 0.9468097D+01 0.2010355D+01
EXPONENTS  0.5477100D+00 0.1526861D+00 0.1526861D+00 0.1526861D+00 0.8000000D+00
EXPONENTS  0.8000000D+00 0.8000000D+00 0.8000000D+00 0.8000000D+00 0.8000000D+00
EXPONENTS  0.1238402D+04 0.1862900D+03 0.4225118D+02 0.1167656D+02 0.3593051D+01
EXPONENTS  0.4024515D+00 0.1309018D+00 0.9468097D+01 0.2010355D+01 0.5477100D+00
EXPONENTS  0.9468097D+01 0.2010355D+01 0.5477100D+00 0.9468097D+01 0.2010355D+01
EXPONENTS  0.5477100D+00 0.1526861D+00 0.1526861D+00 0.1526861D+00 0.8000000D+00
EXPONENTS  0.8000000D+00 0.8000000D+00 0.8000000D+00 0.8000000D+00 0.8000000D+00
EXPONENTS  0.1238402D+04 0.1862900D+03 0.4225118D+02 0.1167656D+02 0.3593051D+01
EXPONENTS  0.4024515D+00 0.1309018D+00 0.9468097D+01 0.2010355D+01 0.5477100D+00
EXPONENTS  0.9468097D+01 0.2010355D+01 0.5477100D+00 0.9468097D+01 0.2010355D+01
EXPONENTS  0.5477100D+00 0.1526861D+00 0.1526861D+00 0.1526861D+00 0.8000000D+00
EXPONENTS  0.8000000D+00 0.8000000D+00 0.8000000D+00 0.8000000D+00 0.8000000D+00
EXPONENTS  0.1238402D+04 0.1862900D+03 0.4225118D+02 0.1167656D+02 0.3593051D+01
EXPONENTS  0.4024515D+00 0.1309018D+00 0.9468097D+01 0.2010355D+01 0.5477100D+00
EXPONENTS  0.9468097D+01 0.2010355D+01 0.5477100D+00 0.9468097D+01 0.2010355D+01
EXPONENTS  0.5477100D+00 0.1526861D+00 0.1526861D+00 0.1526861D+00 0.8000000D+00
EXPONENTS  0.8000000D+00 0.8000000D+00 0.8000000D+00 0.8000000D+00 0.8000000D+00
EXPONENTS  0.2266177D+04 0.3408701D+03 0.7736314D+02 0.2147964D+02 0.6658943D+01
EXPONENTS  0.8097598D+00 0.2553077D+00 0.1772150D+02 0.3863551D+01 0.1048092D+01
EXPONENTS  0.1772150D+02 0.3863551D+01 0.1048092D+01 0.1772150D+02 0.3863551D+01
EXPONENTS  0.1048092D+01 0.2764154D+00 0.2764154D+00 0.2764154D+00 0.1200000D+01
EXPONENTS  0.1200000D+01 0.1200000D+01 0.1200000D+01 0.1200000D+01 0.1200000D+01
EXPONENTS  0.1238402D+04 0.1862900D+03 0.4225118D+02 0.1167656D+02 0.3593051D+01
EXPONENTS  0.4024515D+00 0.1309018D+00 0.9468097D+01 0.2010355D+01 0.5477100D+00
EXPONENTS  0.9468097D+01 0.2010355D+01 0.5477100D+00 0.9468097D+01 0.2010355D+01
EXPONENTS  0.5477100D+00 0.1526861D+00 0.1526861D+00 0.1526861D+00 0.8000000D+00
EXPONENTS  0.8000000D+00 0.8000000D+00 0.8000000D+00 0.8000000D+00 0.8000000D+00
EXPONENTS  0.1238402D+04 0.1862900D+03 0.4225118D+02 0.1167656D+02 0.3593051D+01
EXPONENTS  0.4024515D+00 0.1309018D+00 0.9468097D+01 0.2010355D+01 0.5477100D+00
EXPONENTS  0.9468097D+01 0.2010355D+01 0.5477100D+00 0.9468097D+01 0.2010355D+01
EXPONENTS  0.5477100D+00 0.1526861D+00 0.1526861D+00 0.1526861D+00 0.8000000D+00
EXPONENTS  0.8000000D+00 0.8000000D+00 0.8000000D+00 0.8000000D+00 0.8000000D+00
EXPONENTS  0.1238402D+04 0.1862900D+03 0.4225118D+02 0.1167656D+02 0.3593051D+01
EXPONENTS  0.4024515D+00 0.1309018D+00 0.9468097D+01 0.2010355D+01 0.5477100D+00
EXPONENTS  0.9468097D+01 0.2010355D+01 0.5477100D+00 0.9468097D+01 0.2010355D+01
EXPONENTS  0.5477100D+00 0.1526861D+00 0.1526861D+00 0.1526861D+00 0.8000000D+00
EXPONENTS  0.8000000D+00 0.8000000D+00 0.8000000D+00 0.8000000D+00 0.8000000D+00
EXPONENTS  0.1238402D+04 0.1862900D+03 0.4225118D+02 0.1167656D+02 0.3593051D+01
EXPONENTS  0.4024515D+00 0.1309018D+00 0.9468097D+01 0.2010355D+01 0.5477100D+00
EXPONENTS  0.9468097D+01 0.2010355D+01 0.5477100D+00 0.9468097D+01 0.2010355D+01
EXPONENTS  0.5477100D+00 0.1526861D+00 0.1526861D+00 0.1526861D+00 0.8000000D+00
EXPONENTS  0.8000000D+00 0.8000000D+00 0.8000000D+00 0.8000000D+00 0.8000000D+00
EXPONENTS  0.1238402D+04 0.1862900D+03 0.4225118D+02 0.1167656D+02 0.3593051D+01
EXPONENTS  0.4024515D+00 0.1309018D+00 0.9468097D+01 0.2010355D+01 0.5477100D+00
EXPONENTS  0.9468097D+01 0.2010355D+01 0.5477100D+00 0.9468097D+01 0.2010355D+01
EXPONENTS  0.5477100D+00 0.1526861D+00 0.1526861D+00 0.1526861D+00 0.8000000D+00
EXPONENTS  0.8000000D+00 0.8000000D+00 0.8000000D+00 0.8000000D+00 0.8000000D+00
EXPONENTS  0.2266177D+04 0.3408701D+03 0.7736314D+02 0.2147964D+02 0.6658943D+01
EXPONENTS  0.8097598D+00 0.2553077D+00 0.1772150D+02 0.3863551D+01 0.1048092D+01
EXPONENTS  0.1772150D+02 0.3863551D+01 0.1048092D+01 0.1772150D+02 0.3863551D+01
EXPONENTS  0.1048092D+01 0.2764154D+00 0.2764154D+00 0.2764154D+00 0.1200000D+01
EXPONENTS  0.1200000D+01 0.1200000D+01 0.1200000D+01 0.1200000D+01 0.1200000D+01
EXPONENTS  0.1712842D+04 0.2576481D+03 0.5845825D+02 0.1619837D+02 0.5005260D+01
EXPONENTS  0.5873186D+00 0.1876459D+00 0.1357147D+02 0.2925737D+01 0.7992775D+00
EXPONENTS  0.1357147D+02 0.2925737D+01 0.7992775D+00 0.1357147D+02 0.2925737D+01
EXPONENTS  0.7992775D+00 0.2195435D+00 0.2195435D+00 0.2195435D+00 0.1000000D+01
EXPONENTS  0.1000000D+01 0.1000000D+01 0.1000000D+01 0.1000000D+01 0.1000000D+01
EXPONENTS  0.1238402D+04 0.1862900D+03 0.4225118D+02 0.1167656D+02 0.3593051D+01
EXPONENTS  0.4024515D+00 0.1309018D+00 0.9468097D+01 0.2010355D+01 0.5477100D+00
EXPONENTS  0.9468097D+01 0.2010355D+01 0.5477100D+00 0.9468097D+01 0.2010355D+01
EXPONENTS  0.5477100D+00 0.1526861D+00 0.1526861D+00 0.1526861D+00 0.8000000D+00
EXPONENTS  0.8000000D+00 0.8000000D+00 0.8000000D+00 0.8000000D+00 0.8000000D+00
EXPONENTS  0.1238402D+04 0.1862900D+03 0.4225118D+02 0.1167656D+02 0.3593051D+01
EXPONENTS  0.4024515D+00 0.1309018D+00 0.9468097D+01 0.2010355D+01 0.5477100D+00
EXPONENTS  0.9468097D+01 0.2010355D+01 0.5477100D+00 0.9468097D+01 0.2010355D+01
EXPONENTS  0.5477100D+00 0.1526861D+00 0.1526861D+00 0.1526861D+00 0.8000000D+00
EXPONENTS  0.8000000D+00 0.8000000D+00 0.8000000D+00 0.8000000D+00 0.8000000D+00
EXPONENTS  0.1301070D+02 0.1962257D+01 0.4445380D+00 0.1219496D+00 0.8000000D+00
EXPONENTS  0.8000000D+00 0.8000000D+00 0.1301070D+02 0.1962257D+01 0.4445380D+00
EXPONENTS  0.1219496D+00 0.8000000D+00 0.8000000D+00 0.8000000D+00 0.1301070D+02
EXPONENTS  0.1962257D+01 0.4445380D+00 0.1219496D+00 0.8000000D+00 0.8000000D+00
EXPONENTS  0.8000000D+00 0.1301070D+02 0.1962257D+01 0.4445380D+00 0.1219496D+00
EXPONENTS  0.8000000D+00 0.8000000D+00 0.8000000D+00 0.1301070D+02 0.1962257D+01
EXPONENTS  0.4445380D+00 0.1219496D+00 0.8000000D+00 0.8000000D+00 0.8000000D+00
EXPONENTS  0.1301070D+02 0.1962257D+01 0.4445380D+00 0.1219496D+00 0.8000000D+00
EXPONENTS  0.8000000D+00 0.8000000D+00 0.1301070D+02 0.1962257D+01 0.4445380D+00
EXPONENTS  0.1219496D+00 0.8000000D+00 0.8000000D+00 0.8000000D+00 0.1301070D+02
EXPONENTS  0.1962257D+01 0.4445380D+00 0.1219496D+00 0.8000000D+00 0.8000000D+00
EXPONENTS  0.8000000D+00 0.1301070D+02 0.1962257D+01 0.4445380D+00 0.1219496D+00
EXPONENTS  0.8000000D+00 0.8000000D+00 0.8000000D+00 0.1301070D+02 0.1962257D+01
EXPONENTS  0.4445380D+00 0.1219496D+00 0.8000000D+00 0.8000000D+00 0.8000000D+00
EXPONENTS  0.1301070D+02 0.1962257D+01 0.4445380D+00 0.1219496D+00 0.8000000D+00
EXPONENTS  0.8000000D+00 0.8000000D+00 0.1301070D+02 0.1962257D+01 0.4445380D+00
EXPONENTS  0.1219496D+00 0.8000000D+00 0.8000000D+00 0.8000000D+00 0.1301070D+02
EXPONENTS  0.1962257D+01 0.4445380D+00 0.1219496D+00 0.8000000D+00 0.8000000D+00
EXPONENTS  0.8000000D+00 0.1301070D+02 0.1962257D+01 0.4445380D+00 0.1219496D+00
EXPONENTS  0.8000000D+00 0.8000000D+00 0.8000000D+00 0.1301070D+02 0.1962257D+01
EXPONENTS  0.4445380D+00 0.1219496D+00 0.8000000D+00 0.8000000D+00 0.8000000D+00
EXPONENTS  0.1301070D+02 0.1962257D+01 0.4445380D+00 0.1219496D+00 0.8000000D+00
EXPONENTS  0.8000000D+00 0.8000000D+00 0.1301070D+02 0.1962257D+01 0.4445380D+00
EXPONENTS  0.1219496D+00 0.8000000D+00 0.8000000D+00 0.8000000D+00
MO    1     MO 0.0        OCC NO =    2.0000000  ORB. ENERGY =  -18.779979
  0.27483808D-05  0.49438473D-05  0.72070044D-05  0.70582175D-05  0.27758491D-05
 -0.15053449D-04  0.53143261D-04  0.38669395D-04  0.30659743D-04  0.14668616D-04
 -0.24304666D-04 -0.19270403D-04 -0.92195862D-05 -0.38504542D-08 -0.30529036D-08
 -0.14606082D-08 -0.68496313D-05 -0.50820210D-04  0.19535073D-07  0.37311296D-04
 -0.54696236D-04  0.17384940D-04 -0.39163553D-05  0.43400780D-08  0.40867323D-07
  0.10383750D-04  0.18678515D-04  0.27229025D-04  0.26666888D-04  0.10487529D-04
 -0.26646178D-04 -0.55014863D-03  0.12651793D-04  0.10031208D-04  0.47992554D-05
 -0.30869841D-04 -0.24475723D-04 -0.11709980D-04  0.41684486D-07  0.33050314D-07
  0.15812343D-07 -0.40182270D-03  0.16565062D-03 -0.22843299D-07 -0.75272622D-04
  0.39243348D-04  0.36029275D-04  0.74351454D-04 -0.15199029D-08 -0.39604894D-08
  0.52446366D-05  0.94341663D-05  0.13752868D-04  0.13468943D-04  0.52970533D-05
 -0.28797816D-04 -0.81815705D-04  0.13733247D-04  0.10888658D-04  0.52094874D-05
  0.32558878D-04  0.25814907D-04  0.12350690D-04 -0.21779645D-08 -0.17268394D-08
 -0.82617601D-09  0.29708986D-04  0.73408055D-04 -0.14502775D-07  0.89648312D-05
 -0.26525802D-04  0.17560971D-04 -0.55994330D-04  0.16763968D-07  0.11592642D-07
 -0.69419912D-06 -0.12487405D-05 -0.18203795D-05 -0.17827982D-05 -0.70113719D-06
  0.17476437D-04  0.36653803D-04  0.21595501D-04  0.17122392D-04  0.81919079D-05
 -0.10877023D-04 -0.86240485D-05 -0.41260247D-05 -0.20076240D-08 -0.15917817D-08
 -0.76156005D-09 -0.27431027D-04 -0.13036197D-04  0.42287808D-08 -0.14814647D-04
 -0.20386467D-05  0.16853294D-04  0.12350323D-04  0.14937903D-08  0.68200941D-08
 -0.21225770D-05 -0.38181377D-05 -0.55659760D-05 -0.54510678D-05 -0.21437908D-05
  0.13350535D-04 -0.12329675D-04  0.17916700D-04  0.14205586D-04  0.67964134D-05
 -0.20932645D-05 -0.16596834D-05 -0.79404638D-06 -0.33550224D-08 -0.26600914D-08
 -0.12726741D-08 -0.43072472D-04 -0.48034806D-05  0.65756508D-08  0.12844109D-04
 -0.15615304D-04  0.27711958D-05 -0.21149092D-04  0.26291710D-08  0.82510883D-08
  0.41240910D-06  0.74185046D-06  0.10814492D-05  0.10591229D-05  0.41653086D-06
  0.18576961D-04 -0.39439146D-04  0.16729572D-04  0.13264350D-04  0.63460954D-05
  0.72678815D-05  0.57624740D-05  0.27569546D-05 -0.19181912D-08 -0.15208733D-08
 -0.72763513D-09 -0.30877904D-04  0.80154126D-05 -0.27164325D-08 -0.24614545D-04
  0.14041788D-05  0.23210366D-04  0.12141954D-04  0.12798108D-08  0.10044060D-07
 -0.16562028D-04 -0.29792137D-04 -0.43430157D-04 -0.42533552D-04 -0.16727555D-04
  0.17348893D-03  0.59294881D-03  0.29168064D-03  0.23126438D-03  0.11064439D-03
 -0.19666345D-04 -0.15592824D-04 -0.74601132D-05 -0.69200942D-07 -0.54867243D-07
 -0.26250270D-07 -0.54046342D-03  0.17486600D-03  0.14213704D-07 -0.12424973D-04
 -0.69022724D-04  0.81447698D-04 -0.81735833D-04  0.20802560D-08 -0.23342003D-07
 -0.95786416D-05 -0.17230269D-04 -0.25117812D-04 -0.24599261D-04 -0.96743740D-05
  0.82481995D-04  0.62014178D-03 -0.11797809D-04 -0.93541109D-05 -0.44753103D-05
 -0.31539987D-04 -0.25007061D-04 -0.11964189D-04  0.48913249D-07  0.38781772D-07
  0.18554458D-07  0.39272924D-03  0.28844495D-03  0.39252297D-07  0.11800210D-03
 -0.19588914D-03  0.77887044D-04  0.22399686D-03  0.90373706D-07 -0.12386771D-06
  0.16987750D-04  0.30557934D-04  0.44546514D-04  0.43626863D-04  0.17157531D-04
 -0.42030589D-04 -0.30309747D-02 -0.14357761D-03 -0.11383816D-03 -0.54463868D-04
 -0.29419344D-03 -0.23325670D-03 -0.11159757D-03 -0.18179231D-07 -0.14413739D-07
 -0.68960004D-08 -0.11547327D-02 -0.20635626D-02 -0.28179273D-06 -0.20844177D-03
  0.22843342D-03 -0.19991649D-04 -0.25923850D-03 -0.18076383D-06 -0.48598191D-07
  0.13336689D-04  0.23990327D-04  0.34972437D-04  0.34250440D-04  0.13469981D-04
 -0.16890182D-03 -0.41420841D-03  0.94542185D-03  0.74959516D-03  0.35863065D-03
  0.21558123D-03  0.17092756D-03  0.81777292D-04  0.80282252D-07  0.63653264D-07
  0.30453788D-07 -0.38624094D-02 -0.13824741D-02 -0.24760497D-06 -0.35647410D-03
  0.37052351D-03 -0.14049406D-04 -0.27730133D-03  0.97010826D-07  0.15006620D-06
  0.11379923D-02  0.20519900D-02  0.30199727D-02  0.30037683D-02  0.11910290D-02
  0.18733643D-03 -0.10395776D-02 -0.11987928D-02 -0.95042456D-03 -0.41393937D-03
  0.64033174D-03  0.50766656D-03  0.22110453D-03 -0.91441180D-08 -0.72496218D-08
 -0.31574351D-08  0.92109313D-03 -0.62418869D-03 -0.48523782D-08  0.76812220D-03
 -0.56919765D-03 -0.19892455D-03  0.29850187D-03 -0.12609586D-06 -0.59977969D-08
  0.16121066D-04  0.28998924D-04  0.42273833D-04  0.41401100D-04  0.16282185D-04
 -0.97061627D-04 -0.26425588D-02 -0.69333924D-04 -0.54972681D-04 -0.26300715D-04
  0.74641881D-04  0.59181192D-04  0.28314203D-04  0.19641597D-07  0.15573202D-07
  0.74507254D-08  0.13300382D-02 -0.11028897D-02 -0.14770898D-06 -0.47234484D-03
  0.35244058D-03  0.11990426D-03  0.87133802D-03  0.95973460D-07  0.52812835D-07
 -0.34344515D-04 -0.61779661D-04 -0.90060688D-04 -0.88201407D-04 -0.34687766D-04
  0.26418041D-03  0.17065613D-02 -0.24750871D-05 -0.19624185D-05 -0.93888469D-06
 -0.38486324D-03 -0.30514592D-03 -0.14599171D-03 -0.53838066D-07 -0.42686504D-07
 -0.20422609D-07 -0.15360328D-03 -0.43218614D-03 -0.37562319D-07 -0.37916067D-04
 -0.74719477D-04  0.11263554D-03  0.15923523D-03  0.99764031D-08 -0.54930762D-07
 -0.75215708D-05 -0.13529965D-04 -0.19723611D-04 -0.19316422D-04 -0.75967440D-05
 -0.26706110D-05 -0.14381924D-02  0.65547384D-04  0.51970453D-04  0.24864351D-04
 -0.80372836D-04 -0.63725086D-04 -0.30488149D-04 -0.19883598D-07 -0.15765077D-07
 -0.75425246D-08  0.27800045D-03  0.32910192D-03  0.30754781D-07 -0.66794627D-04
  0.61947507D-04  0.48471204D-05  0.15536434D-04  0.88801828D-08  0.59439794D-08
 -0.50533310D-04 -0.90900417D-04 -0.13251213D-03 -0.12977644D-03 -0.51038358D-04
  0.37321076D-03  0.14532681D-02  0.13608573D-03  0.10789808D-03  0.51621944D-04
 -0.46401591D-03 -0.36790358D-03 -0.17601701D-03 -0.29416478D-07 -0.23323397D-07
 -0.11158670D-07  0.10233534D-02  0.13747461D-03  0.11744292D-07  0.54881838D-04
 -0.15370911D-03  0.98827276D-04 -0.62804356D-03 -0.68078502D-07 -0.91257271D-07
  0.11124598D-04  0.20011169D-04  0.29171731D-04  0.28569488D-04  0.11235781D-04
 -0.12095159D-02  0.23576093D-02 -0.16091318D-03 -0.12758298D-03 -0.61039839D-04
 -0.15237350D-03 -0.12081214D-03 -0.57800450D-04 -0.46125044D-08 -0.36571092D-08
 -0.17496797D-08 -0.89902275D-03  0.45176477D-02  0.52185476D-06 -0.56561781D-03
  0.93855633D-03 -0.37293852D-03 -0.88742359D-03 -0.12063312D-06  0.31771632D-06
 -0.12466535D+01 -0.22479244D+01 -0.33083350D+01 -0.32905834D+01 -0.13047545D+01
 -0.27799537D-01  0.10768738D-01  0.57256956D-02  0.45394348D-02  0.19770647D-02
 -0.54338339D-02 -0.43080416D-02 -0.18762857D-02 -0.29225907D-06 -0.23170826D-06
 -0.10091613D-06 -0.45614377D-03  0.26883700D-02  0.24479932D-06 -0.12155108D-02
  0.62343373D-03  0.59207703D-03 -0.19524218D-02 -0.35604754D-06 -0.10016967D-06
 -0.19504946D-05 -0.35133595D-05 -0.51491503D-05 -0.50861940D-05 -0.20077267D-05
  0.14644213D-04 -0.30586715D-04  0.30943680D-04  0.24736257D-04  0.11491732D-04
 -0.12250732D-04 -0.97931873D-05 -0.45496248D-05  0.23827829D-08  0.19047873D-08
  0.88490777D-09 -0.36938100D-04  0.13304469D-04 -0.14794658D-08 -0.19211607D-04
  0.86414732D-05  0.10570134D-04  0.16648852D-04 -0.96006800D-10 -0.29713609D-09
 -0.12258244D-05 -0.22050396D-05 -0.32144461D-05 -0.31480846D-05 -0.12380757D-05
  0.11291801D-04 -0.19818070D-04  0.11275236D-04  0.89397792D-05  0.42770805D-05
 -0.74046425D-05 -0.58709074D-05 -0.28088327D-05  0.74588047D-09  0.59138510D-09
  0.28293782D-09 -0.10664478D-04  0.10074483D-05  0.54660425D-09  0.75606064D-05
 -0.79785138D-05  0.41790739D-06 -0.43618975D-05  0.13235138D-09  0.44393364D-08
 -0.52557239D-06 -0.94541105D-06 -0.13781942D-05 -0.13497417D-05 -0.53082515D-06
  0.63241270D-05 -0.18723361D-04  0.82995662D-05  0.65804642D-05  0.31483076D-05
  0.56885910D-05  0.45103043D-05  0.21578760D-05 -0.16771734D-08 -0.13297779D-08
 -0.63620890D-09 -0.55815695D-05  0.45150538D-05 -0.91832070D-09  0.59418159D-05
 -0.69954364D-05  0.10536204D-05 -0.91338500D-05  0.21962910D-08  0.42544631D-08
 -0.48455818D-05 -0.82202367D-05 -0.93583069D-05 -0.34205885D-04  0.11539518D-04
  0.13504018D-04 -0.10889671D-07 -0.69148864D-05 -0.11730687D-04 -0.13354770D-04
 -0.54549247D-05  0.22468125D-04 -0.23759307D-04  0.40557348D-08 -0.18155208D-06
 -0.30799213D-06 -0.35063283D-06 -0.75766139D-05  0.96550573D-05  0.10093960D-04
 -0.29425830D-08 -0.16919283D-05 -0.28702541D-05 -0.32676332D-05 -0.23467454D-05
  0.70594046D-05 -0.11028329D-04  0.39437329D-08  0.38356281D-04  0.65069113D-04
  0.74077761D-04  0.82640838D-06  0.83821639D-04  0.16359499D-04 -0.20124215D-07
 -0.48801479D-04 -0.82788760D-04 -0.94250646D-04 -0.19376346D-03  0.19208109D-04
 -0.30011167D-04 -0.44415034D-07 -0.15297103D-03 -0.25950610D-03 -0.29543404D-03
 -0.30442589D-03 -0.37901961D-03 -0.86448264D-04 -0.28212157D-07 -0.13012880D-04
 -0.22075564D-04 -0.25131868D-04 -0.93745473D-04  0.86275659D-04  0.65190414D-04
 -0.35364720D-08  0.70840094D-05  0.12017594D-04  0.13681398D-04  0.36117413D-04
 -0.57503690D-04  0.10236607D-04  0.50106057D-08  0.58275589D-04  0.98861015D-04
  0.11254806D-03  0.15099012D-03 -0.22624150D-03 -0.41422446D-04 -0.33749223D-07
 -0.66518664D-04 -0.11284489D-03 -0.12846797D-03 -0.47122951D-03  0.28813572D-02
  0.23937035D-03  0.56639292D-07 -0.15775074D-05 -0.26761459D-05 -0.30466513D-05
 -0.24720205D-05 -0.45860499D-05  0.28025925D-05 -0.33239209D-09  0.24463876D-05
  0.41501487D-05  0.47247259D-05  0.33073903D-05  0.42994149D-05  0.11675575D-05
  0.30904003D-05  0.24463056D-05  0.41500097D-05  0.47245676D-05  0.33078992D-05
  0.42993864D-05  0.11666233D-05 -0.30921089D-05 -0.64833904D-06 -0.10998680D-05
 -0.12521418D-05 -0.28124051D-07 -0.39027720D-05 -0.11429660D-06 -0.54374353D-11
  0.17321875D-05  0.29385515D-05  0.33453862D-05  0.28370320D-05  0.15796453D-05
 -0.28364098D-05  0.23893090D-05  0.17323557D-05  0.29388367D-05  0.33457110D-05
  0.28369398D-05  0.15804324D-05 -0.28380451D-05 -0.23877974D-05
MO    2     MO 0.0        OCC NO =    2.0000000  ORB. ENERGY =  -18.759277
 -0.13482350D-04 -0.24252344D-04 -0.35354399D-04 -0.34624516D-04 -0.13617097D-04
  0.11993181D-03 -0.10536352D-03  0.14601998D-03  0.11577463D-03  0.55390343D-04
 -0.60765385D-05 -0.48178957D-05 -0.23050377D-05 -0.24832907D-07 -0.19689228D-07
 -0.94199658D-08 -0.12649274D-03 -0.14171601D-03  0.42043164D-07  0.47603927D-04
 -0.97933663D-04  0.50329736D-04 -0.10603456D-03  0.25458245D-07  0.60081055D-07
 -0.13497706D-04 -0.24279968D-04 -0.35394668D-04 -0.34663954D-04 -0.13632607D-04
  0.15754884D-04  0.12694741D-02  0.18761848D-03  0.14875678D-03  0.71170070D-04
 -0.84121175D-04 -0.66697025D-04 -0.31910022D-04  0.47542193D-08  0.37694705D-08
  0.18034370D-08 -0.22265610D-03  0.62712299D-03 -0.10268640D-06 -0.21793032D-04
  0.51504343D-04 -0.29711311D-04  0.13525756D-03 -0.29477237D-07 -0.80681133D-07
  0.25410438D-05  0.45708848D-05  0.66633100D-05  0.65257476D-05  0.25664399D-05
 -0.68061678D-05 -0.55326907D-03  0.10093983D-03  0.80032007D-04  0.38289910D-04
 -0.75147241D-04 -0.59581877D-04 -0.28505904D-04  0.53007697D-07  0.42028131D-07
  0.20107622D-07 -0.24031133D-03  0.67444326D-03 -0.15761713D-06  0.10884985D-03
 -0.13248227D-03  0.23632420D-04  0.43434655D-04 -0.33135126D-07  0.80408201D-07
  0.87233957D-05  0.15691834D-04  0.22875124D-04  0.22402872D-04  0.88105804D-05
 -0.32766919D-04 -0.49508455D-04  0.35196435D-04  0.27906143D-04  0.13351205D-04
  0.11073529D-04  0.87798515D-05  0.42005659D-05 -0.14704784D-07 -0.11658959D-07
 -0.55780246D-08 -0.28963999D-03 -0.20228239D-03  0.80637175D-07 -0.58521588D-04
  0.20447502D-04  0.38074086D-04 -0.16052013D-04  0.33128383D-07  0.57296805D-08
  0.86432470D-05  0.15547661D-04  0.22664952D-04  0.22197039D-04  0.87296307D-05
 -0.52805958D-04 -0.26858297D-03 -0.72181165D-06 -0.57230168D-06 -0.27380770D-06