 ***
GAUSSIAN             28 MOL ORBITALS    273 PRIMITIVES       21 NUCLEI
  C    1    (CENTRE  1)   7.11112214 -0.02942069  0.95114193  CHARGE =  6.0
  C    2    (CENTRE  2)   5.15891238 -0.38898908 -0.64041028  CHARGE =  6.0
  C    3    (CENTRE  3)   2.67047448  1.01443001 -0.57762400  CHARGE =  6.0
  C    4    (CENTRE  4)   0.35386123 -0.72796651 -0.14652761  CHARGE =  6.0
  C    5    (CENTRE  5)  -2.19528535  0.68573014 -0.17347106  CHARGE =  6.0
  C    6    (CENTRE  6)  -4.50835318 -1.03670280  0.26116268  CHARGE =  6.0
  C    7    (CENTRE  7)  -7.04728113  0.38714680  0.23351418  CHARGE =  6.0
  H    8    (CENTRE  8)   8.86607041 -1.13580457  0.79530092  CHARGE =  1.0
  H    9    (CENTRE  9)   7.03129888  1.39496427  2.47037919  CHARGE =  1.0
  H   10    (CENTRE 10)   5.33494615 -1.84651659 -2.12893817  CHARGE =  1.0
  H   11    (CENTRE 11)   2.72846365  2.49731347  0.90869522  CHARGE =  1.0
  H   12    (CENTRE 12)   2.40469597  2.02379383 -2.40775730  CHARGE =  1.0
  H   13    (CENTRE 13)   0.58574043 -1.73114946  1.68569484  CHARGE =  1.0
  H   14    (CENTRE 14)   0.33313172 -2.22899355 -1.62031387  CHARGE =  1.0
  H   15    (CENTRE 15)  -2.16932880  2.19307965  1.29489345  CHARGE =  1.0
  H   16    (CENTRE 16)  -2.41348094  1.68933062 -2.01057412  CHARGE =  1.0
  H   17    (CENTRE 17)  -4.53293271 -2.54231519 -1.20695193  CHARGE =  1.0
  H   18    (CENTRE 18)  -4.28642148 -2.03900801  2.09642489  CHARGE =  1.0
  H   19    (CENTRE 19)  -7.11583770  1.85820740  1.72843351  CHARGE =  1.0
  H   20    (CENTRE 20)  -7.36403947  1.35144621 -1.60317014  CHARGE =  1.0
  H   21    (CENTRE 21)  -8.66300955 -0.90971526  0.55116845  CHARGE =  1.0
CENTRE ASSIGNMENTS    1  1  1  1  1  1  1  1  1  1  1  1  1  1  1  1  1  1  1  1
CENTRE ASSIGNMENTS    1  1  1  1  1  2  2  2  2  2  2  2  2  2  2  2  2  2  2  2
CENTRE ASSIGNMENTS    2  2  2  2  2  2  2  2  2  2  3  3  3  3  3  3  3  3  3  3
CENTRE ASSIGNMENTS    3  3  3  3  3  3  3  3  3  3  3  3  3  3  3  4  4  4  4  4
CENTRE ASSIGNMENTS    4  4  4  4  4  4  4  4  4  4  4  4  4  4  4  4  4  4  4  4
CENTRE ASSIGNMENTS    5  5  5  5  5  5  5  5  5  5  5  5  5  5  5  5  5  5  5  5
CENTRE ASSIGNMENTS    5  5  5  5  5  6  6  6  6  6  6  6  6  6  6  6  6  6  6  6
CENTRE ASSIGNMENTS    6  6  6  6  6  6  6  6  6  6  7  7  7  7  7  7  7  7  7  7
CENTRE ASSIGNMENTS    7  7  7  7  7  7  7  7  7  7  7  7  7  7  7  8  8  8  8  8
CENTRE ASSIGNMENTS    8  8  9  9  9  9  9  9  9 10 10 10 10 10 10 10 11 11 11 11
CENTRE ASSIGNMENTS   11 11 11 12 12 12 12 12 12 12 13 13 13 13 13 13 13 14 14 14
CENTRE ASSIGNMENTS   14 14 14 14 15 15 15 15 15 15 15 16 16 16 16 16 16 16 17 17
CENTRE ASSIGNMENTS   17 17 17 17 17 18 18 18 18 18 18 18 19 19 19 19 19 19 19 20
CENTRE ASSIGNMENTS   20 20 20 20 20 20 21 21 21 21 21 21 21
TYPE ASSIGNMENTS      1  1  1  1  1  1  1  2  2  2  3  3  3  4  4  4  2  3  4  5
TYPE ASSIGNMENTS      6  7  8  9 10  1  1  1  1  1  1  1  2  2  2  3  3  3  4  4
TYPE ASSIGNMENTS      4  2  3  4  5  6  7  8  9 10  1  1  1  1  1  1  1  2  2  2
TYPE ASSIGNMENTS      3  3  3  4  4  4  2  3  4  5  6  7  8  9 10  1  1  1  1  1
TYPE ASSIGNMENTS      1  1  2  2  2  3  3  3  4  4  4  2  3  4  5  6  7  8  9 10
TYPE ASSIGNMENTS      1  1  1  1  1  1  1  2  2  2  3  3  3  4  4  4  2  3  4  5
TYPE ASSIGNMENTS      6  7  8  9 10  1  1  1  1  1  1  1  2  2  2  3  3  3  4  4
TYPE ASSIGNMENTS      4  2  3  4  5  6  7  8  9 10  1  1  1  1  1  1  1  2  2  2
TYPE ASSIGNMENTS      3  3  3  4  4  4  2  3  4  5  6  7  8  9 10  1  1  1  1  2
TYPE ASSIGNMENTS      3  4  1  1  1  1  2  3  4  1  1  1  1  2  3  4  1  1  1  1
TYPE ASSIGNMENTS      2  3  4  1  1  1  1  2  3  4  1  1  1  1  2  3  4  1  1  1
TYPE ASSIGNMENTS      1  2  3  4  1  1  1  1  2  3  4  1  1  1  1  2  3  4  1  1
TYPE ASSIGNMENTS      1  1  2  3  4  1  1  1  1  2  3  4  1  1  1  1  2  3  4  1
TYPE ASSIGNMENTS      1  1  1  2  3  4  1  1  1  1  2  3  4
EXPONENTS  0.1238402D+04 0.1862900D+03 0.4225118D+02 0.1167656D+02 0.3593051D+01
EXPONENTS  0.4024515D+00 0.1309018D+00 0.9468097D+01 0.2010355D+01 0.5477100D+00
EXPONENTS  0.9468097D+01 0.2010355D+01 0.5477100D+00 0.9468097D+01 0.2010355D+01
EXPONENTS  0.5477100D+00 0.1526861D+00 0.1526861D+00 0.1526861D+00 0.8000000D+00
EXPONENTS  0.8000000D+00 0.8000000D+00 0.8000000D+00 0.8000000D+00 0.8000000D+00
EXPONENTS  0.1238402D+04 0.1862900D+03 0.4225118D+02 0.1167656D+02 0.3593051D+01
EXPONENTS  0.4024515D+00 0.1309018D+00 0.9468097D+01 0.2010355D+01 0.5477100D+00
EXPONENTS  0.9468097D+01 0.2010355D+01 0.5477100D+00 0.9468097D+01 0.2010355D+01
EXPONENTS  0.5477100D+00 0.1526861D+00 0.1526861D+00 0.1526861D+00 0.8000000D+00
EXPONENTS  0.8000000D+00 0.8000000D+00 0.8000000D+00 0.8000000D+00 0.8000000D+00
EXPONENTS  0.1238402D+04 0.1862900D+03 0.4225118D+02 0.1167656D+02 0.3593051D+01
EXPONENTS  0.4024515D+00 0.1309018D+00 0.9468097D+01 0.2010355D+01 0.5477100D+00
EXPONENTS  0.9468097D+01 0.2010355D+01 0.5477100D+00 0.9468097D+01 0.2010355D+01
EXPONENTS  0.5477100D+00 0.1526861D+00 0.1526861D+00 0.1526861D+00 0.8000000D+00
EXPONENTS  0.8000000D+00 0.8000000D+00 0.8000000D+00 0.8000000D+00 0.8000000D+00
EXPONENTS  0.1238402D+04 0.1862900D+03 0.4225118D+02 0.1167656D+02 0.3593051D+01
EXPONENTS  0.4024515D+00 0.1309018D+00 0.9468097D+01 0.2010355D+01 0.5477100D+00
EXPONENTS  0.9468097D+01 0.2010355D+01 0.5477100D+00 0.9468097D+01 0.2010355D+01
EXPONENTS  0.5477100D+00 0.1526861D+00 0.1526861D+00 0.1526861D+00 0.8000000D+00
EXPONENTS  0.8000000D+00 0.8000000D+00 0.8000000D+00 0.8000000D+00 0.8000000D+00
EXPONENTS  0.1238402D+04 0.1862900D+03 0.4225118D+02 0.1167656D+02 0.3593051D+01
EXPONENTS  0.4024515D+00 0.1309018D+00 0.9468097D+01 0.2010355D+01 0.5477100D+00
EXPONENTS  0.9468097D+01 0.2010355D+01 0.5477100D+00 0.9468097D+01 0.2010355D+01
EXPONENTS  0.5477100D+00 0.1526861D+00 0.1526861D+00 0.1526861D+00 0.8000000D+00
EXPONENTS  0.8000000D+00 0.8000000D+00 0.8000000D+00 0.8000000D+00 0.8000000D+00
EXPONENTS  0.1238402D+04 0.1862900D+03 0.4225118D+02 0.1167656D+02 0.3593051D+01
EXPONENTS  0.4024515D+00 0.1309018D+00 0.9468097D+01 0.2010355D+01 0.5477100D+00
EXPONENTS  0.9468097D+01 0.2010355D+01 0.5477100D+00 0.9468097D+01 0.2010355D+01
EXPONENTS  0.5477100D+00 0.1526861D+00 0.1526861D+00 0.1526861D+00 0.8000000D+00
EXPONENTS  0.8000000D+00 0.8000000D+00 0.8000000D+00 0.8000000D+00 0.8000000D+00
EXPONENTS  0.1238402D+04 0.1862900D+03 0.4225118D+02 0.1167656D+02 0.3593051D+01
EXPONENTS  0.4024515D+00 0.1309018D+00 0.9468097D+01 0.2010355D+01 0.5477100D+00
EXPONENTS  0.9468097D+01 0.2010355D+01 0.5477100D+00 0.9468097D+01 0.2010355D+01
EXPONENTS  0.5477100D+00 0.1526861D+00 0.1526861D+00 0.1526861D+00 0.8000000D+00
EXPONENTS  0.8000000D+00 0.8000000D+00 0.8000000D+00 0.8000000D+00 0.8000000D+00
EXPONENTS  0.1301070D+02 0.1962257D+01 0.4445380D+00 0.1219496D+00 0.8000000D+00
EXPONENTS  0.8000000D+00 0.8000000D+00 0.1301070D+02 0.1962257D+01 0.4445380D+00
EXPONENTS  0.1219496D+00 0.8000000D+00 0.8000000D+00 0.8000000D+00 0.1301070D+02
EXPONENTS  0.1962257D+01 0.4445380D+00 0.1219496D+00 0.8000000D+00 0.8000000D+00
EXPONENTS  0.8000000D+00 0.1301070D+02 0.1962257D+01 0.4445380D+00 0.1219496D+00
EXPONENTS  0.8000000D+00 0.8000000D+00 0.8000000D+00 0.1301070D+02 0.1962257D+01
EXPONENTS  0.4445380D+00 0.1219496D+00 0.8000000D+00 0.8000000D+00 0.8000000D+00
EXPONENTS  0.1301070D+02 0.1962257D+01 0.4445380D+00 0.1219496D+00 0.8000000D+00
EXPONENTS  0.8000000D+00 0.8000000D+00 0.1301070D+02 0.1962257D+01 0.4445380D+00
EXPONENTS  0.1219496D+00 0.8000000D+00 0.8000000D+00 0.8000000D+00 0.1301070D+02
EXPONENTS  0.1962257D+01 0.4445380D+00 0.1219496D+00 0.8000000D+00 0.8000000D+00
EXPONENTS  0.8000000D+00 0.1301070D+02 0.1962257D+01 0.4445380D+00 0.1219496D+00
EXPONENTS  0.8000000D+00 0.8000000D+00 0.8000000D+00 0.1301070D+02 0.1962257D+01
EXPONENTS  0.4445380D+00 0.1219496D+00 0.8000000D+00 0.8000000D+00 0.8000000D+00
EXPONENTS  0.1301070D+02 0.1962257D+01 0.4445380D+00 0.1219496D+00 0.8000000D+00
EXPONENTS  0.8000000D+00 0.8000000D+00 0.1301070D+02 0.1962257D+01 0.4445380D+00
EXPONENTS  0.1219496D+00 0.8000000D+00 0.8000000D+00 0.8000000D+00 0.1301070D+02
EXPONENTS  0.1962257D+01 0.4445380D+00 0.1219496D+00 0.8000000D+00 0.8000000D+00
EXPONENTS  0.8000000D+00 0.1301070D+02 0.1962257D+01 0.4445380D+00 0.1219496D+00
EXPONENTS  0.8000000D+00 0.8000000D+00 0.8000000D+00
MO    1     MO 0.0        OCC NO =    2.0000000  ORB. ENERGY =   -9.924904
  0.33618055D-03  0.60472889D-03  0.88155712D-03  0.86335759D-03  0.33954046D-03
 -0.80007653D-04  0.59859963D-03  0.10728292D-03  0.85061241D-04  0.40696059D-04
 -0.19500782D-03 -0.15461555D-03 -0.73973097D-04 -0.33308941D-03 -0.26409608D-03
 -0.12635214D-03 -0.45683675D-03  0.27904068D-03  0.50315155D-04 -0.36133137D-04
 -0.93103256D-04  0.12923639D-03 -0.68138700D-04  0.31413454D-03  0.71526674D-03
 -0.26154386D-01 -0.47047078D-01 -0.68583934D-01 -0.67168036D-01 -0.26415782D-01
 -0.11828729D-02  0.16009007D-02  0.19580892D-02  0.15525071D-02  0.74276980D-03
 -0.10614446D-02 -0.84158595D-03 -0.40264204D-03  0.14832917D-03  0.11760552D-03
  0.56266298D-04 -0.69783941D-03 -0.35442906D-04 -0.30926888D-03 -0.12000144D-02
  0.18576281D-03  0.10142516D-02  0.26466950D-02 -0.20141543D-03 -0.26581099D-03
  0.81010475D+00  0.14572341D+01  0.21243157D+01  0.20804597D+01  0.81820123D+00
  0.19485395D-01 -0.88630200D-02  0.40935433D-04  0.32456414D-04  0.15528202D-04
  0.16193204D-02  0.12839080D-02  0.61426327D-03 -0.28565074D-03 -0.22648346D-03
 -0.10835704D-03  0.27703931D-03  0.57459562D-03 -0.55403046D-05 -0.96944071D-03
  0.11153572D-03  0.85790499D-03 -0.50478959D-03  0.48959175D-03  0.27655170D-03
 -0.10925247D-01 -0.19652571D-01 -0.28648977D-01 -0.28057526D-01 -0.11034437D-01
 -0.98495944D-03  0.26041114D-02 -0.15374781D-02 -0.12190179D-02 -0.58321773D-03
 -0.13110928D-02 -0.10395241D-02 -0.49734207D-03  0.27803524D-03  0.22044537D-03
  0.10546822D-03  0.55862490D-03  0.45543746D-03 -0.10511960D-03 -0.57416909D-03
 -0.17770621D-03  0.75187530D-03 -0.24104800D-02  0.54910641D-03  0.43376271D-03
 -0.34509819D-03 -0.62077014D-03 -0.90494161D-03 -0.88625931D-03 -0.34854723D-03
 -0.17451976D-03 -0.26149209D-03 -0.31327044D-03 -0.24838225D-03 -0.11883413D-03
 -0.19444616D-03 -0.15417022D-03 -0.73760039D-04  0.73724101D-04  0.58453514D-04
  0.27966058D-04  0.22344050D-03  0.36611381D-03 -0.99241375D-04 -0.99580821D-05
  0.40227177D-04 -0.30269095D-04  0.18196648D-03 -0.32855934D-04 -0.64152497D-04
 -0.26237862D-03 -0.47197237D-03 -0.68802833D-03 -0.67382415D-03 -0.26500093D-03
 -0.11250649D-03  0.66741892D-03  0.14489801D-03  0.11488506D-03  0.54964740D-04
 -0.10023689D-05 -0.79474667D-06 -0.38023260D-06 -0.15565168D-04 -0.12341130D-04
 -0.59043973D-05  0.12613222D-03  0.10515058D-03 -0.12162653D-04  0.46705847D-04
 -0.25642425D-04 -0.21063422D-04  0.42884285D-04 -0.66959509D-05 -0.35301142D-05
 -0.21861394D-03 -0.39324752D-03 -0.57326540D-03 -0.56143048D-03 -0.22079885D-03
 -0.69251744D-05 -0.17098364D-03 -0.82908500D-04 -0.65735534D-04 -0.31450013D-04
  0.15093993D-04  0.11967551D-04  0.57256649D-05  0.43982047D-05  0.34871977D-05
  0.16683886D-05 -0.13009898D-04  0.52373720D-05 -0.30585556D-05 -0.14187645D-04
  0.14615304D-04 -0.42765896D-06 -0.12044739D-04 -0.29933417D-06  0.33757688D-06
  0.96675380D-04  0.16400394D-03  0.18670985D-03  0.20108531D-03 -0.42416981D-04
  0.64376202D-04  0.98066440D-06 -0.13205598D-03 -0.22402498D-03 -0.25504065D-03
 -0.26755488D-03  0.21431832D-03  0.89106982D-04  0.22461024D-03 -0.53921668D-04
 -0.91474851D-04 -0.10413930D-03 -0.17848454D-03 -0.21579215D-03  0.32001441D-03
  0.14196403D-03 -0.45391248D-03 -0.77003508D-03 -0.87664442D-03  0.13338661D-02
 -0.25509872D-04  0.19848346D-02  0.24192199D-02 -0.42691752D-03 -0.72423978D-03
 -0.82450888D-03  0.14032877D-02 -0.52550091D-03  0.12139693D-02 -0.28419397D-02
 -0.33061123D-04 -0.56086197D-04 -0.63851184D-04 -0.22571728D-04  0.42617643D-03
  0.38735731D-03 -0.14351793D-03 -0.26785961D-04 -0.45440764D-04 -0.51731918D-04
 -0.36216289D-04  0.40279012D-03  0.40698076D-03 -0.50728804D-04 -0.38841955D-04
 -0.65893030D-04 -0.75015747D-04 -0.13262671D-03 -0.15619865D-03 -0.71822133D-04
  0.12687395D-03 -0.48134890D-04 -0.81657932D-04 -0.92963258D-04 -0.16787048D-03
 -0.18202019D-03 -0.80781163D-04 -0.84791330D-04 -0.12489523D-04 -0.21187722D-04
 -0.24121106D-04 -0.65571623D-04  0.27732189D-05 -0.16359748D-04 -0.11166757D-04
 -0.16127228D-04 -0.27358867D-04 -0.31146630D-04 -0.77365728D-04  0.10484585D-04
 -0.18332013D-04  0.15617786D-04  0.11271483D-05  0.19121390D-05  0.21768697D-05
  0.34935175D-04 -0.14122033D-04 -0.45912798D-05 -0.19861118D-04 -0.57227375D-06
 -0.97082783D-06 -0.11052364D-05  0.36716612D-04 -0.48165745D-05  0.17326324D-05
  0.24824519D-04  0.10955483D-04  0.18585314D-04  0.21158402D-04  0.29355513D-04
  0.33135591D-04  0.98917417D-05 -0.67811992D-06
MO    2     MO 0.0        OCC NO =    2.0000000  ORB. ENERGY =   -9.924437
  0.19901552D-01  0.35799344D-01  0.52187298D-01  0.51109904D-01  0.20100455D-01
 -0.15153151D-02  0.28273570D-02  0.33298820D-02  0.26401584D-02  0.12631375D-02
  0.56048762D-03  0.44439295D-03  0.21261201D-03  0.25398666D-02  0.20137801D-02
  0.96345777D-03 -0.82054045D-03  0.10755559D-03 -0.24841688D-03 -0.59897838D-03
  0.73230759D-03 -0.13332921D-03  0.29199902D-04 -0.23638044D-02 -0.98282150D-03
  0.81021433D+00  0.14574312D+01  0.21246030D+01  0.20807411D+01  0.81831190D+00
  0.17997866D-01 -0.63865423D-02  0.19203831D-03  0.15226112D-03  0.72846660D-04
 -0.10848332D-02 -0.86012998D-03 -0.41151410D-03 -0.34176982D-03 -0.27097851D-03
 -0.12964491D-03 -0.22877490D-03 -0.33863269D-03 -0.73858589D-03  0.28122300D-03
 -0.59276876D-03  0.31154576D-03 -0.10607550D-02  0.22328484D-02  0.35843755D-02
  0.26738244D-01  0.48097335D-01  0.70114970D-01  0.68667464D-01  0.27005475D-01
  0.41864653D-03 -0.69488354D-03 -0.21044427D-02 -0.16685462D-02 -0.79828666D-03
  0.11433241D-02  0.90650560D-03  0.43370170D-03  0.22157642D-05  0.17568095D-05
  0.84051469D-06  0.58765909D-03  0.59861060D-03  0.24903192D-03 -0.13384566D-02
  0.20887006D-03  0.11295865D-02  0.25485683D-02  0.39804185D-03 -0.24646528D-03
 -0.10286854D-02 -0.18504217D-02 -0.26974938D-02 -0.26418047D-02 -0.10389665D-02
 -0.46855996D-03  0.12143790D-02 -0.81746130D-03 -0.64813927D-03 -0.31009087D-03
  0.51960353D-04  0.41197725D-04  0.19710329D-04 -0.42333308D-04 -0.33564745D-04
 -0.16058463D-04  0.11775848D-02  0.90446646D-04 -0.21996681D-03  0.20234772D-03
 -0.98740536D-04 -0.10360718D-03  0.80814592D-04 -0.23896357D-03 -0.42715097D-04
  0.66127541D-03  0.11895166D-02  0.17340445D-02  0.16982456D-02  0.66788443D-03
 -0.36147347D-05  0.74324222D-03  0.36213855D-03  0.28712823D-03  0.13737147D-03
  0.74474225D-05  0.59048264D-05  0.28250606D-05  0.51417905D-04  0.40767634D-04
  0.19504559D-04 -0.65438029D-04 -0.21655593D-03 -0.31306464D-04  0.49049125D-05
  0.28534408D-04 -0.33439320D-04 -0.10210372D-03  0.43397295D-04 -0.12264895D-03
 -0.10997076D-02 -0.19781780D-02 -0.28837334D-02 -0.28241994D-02 -0.11106985D-02
 -0.69291213D-04 -0.47186697D-03 -0.34027413D-03 -0.26979262D-03 -0.12907755D-03
  0.44704769D-04  0.35445001D-04  0.16958039D-04  0.73795277D-05  0.58509947D-05
  0.27993058D-05  0.22735519D-03 -0.22850075D-03  0.70648873D-04 -0.36186474D-04
  0.23400842D-06  0.35952465D-04 -0.41168412D-05  0.52406576D-04 -0.21937487D-04
  0.21752567D-03  0.39128991D-03  0.57041166D-03  0.55863565D-03  0.21969970D-03
 -0.31701273D-04  0.44606613D-03  0.93739843D-04  0.74323364D-04  0.35558709D-04
 -0.37350446D-04 -0.29613990D-04 -0.14168294D-04 -0.10208518D-04 -0.80940118D-05
 -0.38724380D-05  0.14391073D-03 -0.10045150D-03  0.32789176D-05  0.48079425D-04
 -0.10065576D-04 -0.38013849D-04 -0.83301426D-04 -0.17316184D-04  0.19583745D-04
  0.90693811D-04  0.15385657D-03  0.17515761D-03  0.58370314D-05 -0.49253988D-03
  0.18641622D-03 -0.20816183D-03 -0.62353460D-04 -0.10577888D-03 -0.12042368D-03
 -0.24439532D-03 -0.19659519D-03 -0.21591099D-03 -0.45522996D-03 -0.78220406D-03
 -0.13269619D-02 -0.15106763D-02  0.98930460D-03  0.23437992D-03 -0.24788703D-02
 -0.23651650D-02 -0.53381516D-04 -0.90558516D-04 -0.10309610D-03 -0.76595823D-04
  0.46566224D-03 -0.32690648D-03  0.26804564D-03  0.14144260D-04  0.23994882D-04
  0.27316910D-04  0.38260665D-03  0.46268708D-03 -0.64928468D-03 -0.22287407D-03
 -0.12667355D-03 -0.21489402D-03 -0.24464554D-03  0.14030112D-03 -0.36103776D-03
  0.17600679D-03 -0.11909997D-03 -0.83315080D-04 -0.14133900D-03 -0.16090701D-03
 -0.22818619D-03 -0.44649598D-03  0.54917017D-04 -0.44769823D-04  0.20357557D-04
  0.34535366D-04  0.39316696D-04 -0.44717037D-04  0.75420464D-04  0.64186930D-04
 -0.41688047D-04 -0.97164907D-05 -0.16483439D-04 -0.18765528D-04 -0.13671185D-03
  0.28401777D-04  0.15598455D-03 -0.23951516D-04 -0.21118102D-04 -0.35825584D-04
 -0.40785542D-04  0.36006353D-04 -0.13631065D-03  0.67502281D-04 -0.55159613D-04
 -0.22981603D-04 -0.38986901D-04 -0.44384536D-04 -0.68693920D-04 -0.13658967D-03
  0.37274704D-04  0.98637948D-04 -0.12857656D-04 -0.21812237D-04 -0.24832084D-04
 -0.78872740D-05 -0.20062449D-04  0.92454542D-05 -0.16867931D-04 -0.12180574D-04
 -0.20663607D-04 -0.23524429D-04  0.27975832D-05  0.41081113D-05  0.35589083D-05
  0.26820158D-04 -0.18651775D-04 -0.31641609D-04 -0.36022307D-04 -0.34222532D-04
 -0.38739375D-04  0.26077525D-04  0.28595644D-05
MO    3     MO 0.0        OCC NO =    2.0000000  ORB. ENERGY =   -9.921575
  0.52995129D-03  0.95328792D-03  0.13896769D-02  0.13609873D-02  0.53524782D-03
  0.10367539D-03 -0.22088587D-03 -0.93261889D-04 -0.73944410D-04 -0.35377406D-04
 -0.27737180D-04 -0.21991935D-04 -0.10521655D-04  0.43858450D-04  0.34773981D-04
  0.16637001D-04  0.12313084D-03  0.50868523D-04  0.32872790D-04 -0.43220486D-04
  0.30651447D-04  0.12569039D-04 -0.23756602D-04 -0.12613823D-04 -0.52678291D-04
  0.73114776D-03  0.13152045D-02  0.19172689D-02  0.18776874D-02  0.73845512D-03
 -0.21030381D-03  0.31920392D-03  0.18711853D-03  0.14836038D-03  0.70980421D-04
  0.10352025D-04  0.82077940D-05  0.39268750D-05  0.20196091D-05  0.16012843D-05
  0.76610640D-06  0.33253466D-04 -0.11251456D-03  0.22843870D-04  0.43026940D-04
  0.41669033D-04 -0.84695973D-04  0.36566425D-03 -0.35807828D-04  0.71019901D-04
  0.11568395D-01  0.20809481D-01  0.30335488D-01  0.29709219D-01  0.11684014D-01
 -0.42563968D-03  0.20857775D-02  0.15850505D-02  0.12567365D-02  0.60126355D-03
  0.13456245D-02  0.10669032D-02  0.51044114D-03 -0.34579513D-03 -0.27417005D-03
 -0.13117185D-03 -0.55331949D-03 -0.38392112D-03  0.11514546D-03 -0.64822169D-03
 -0.13981862D-03  0.78804031D-03 -0.25506732D-02  0.57834532D-03  0.49983487D-03
  0.81042322D+00  0.14578069D+01  0.21251508D+01  0.20812776D+01  0.81852288D+00
  0.19423866D-01 -0.90646370D-02  0.86961117D-04  0.68948726D-04  0.32987308D-04
 -0.18504314D-02 -0.14671486D-02 -0.70193153D-03  0.26106086D-03  0.20698692D-03
  0.99029260D-04  0.10973333D-03 -0.50374203D-03  0.51501493D-04 -0.11731243D-02
  0.19613731D-03  0.97698703D-03 -0.29491402D-03  0.38359283D-03  0.26576401D-03
 -0.15491075D-01 -0.27865682D-01 -0.40621824D-01 -0.39783196D-01 -0.15645898D-01
 -0.11130160D-02  0.25054447D-02 -0.18620933D-02 -0.14763950D-02 -0.70635529D-03
  0.10951103D-02  0.86827838D-03  0.41541256D-03 -0.40639677D-04 -0.32221918D-04
 -0.15416011D-04  0.64275845D-03 -0.30623889D-03  0.21940985D-04 -0.95428044D-03
  0.14765142D-03  0.80662902D-03  0.23246567D-02 -0.84750337D-04  0.37525821D-04
 -0.15463720D-02 -0.27816475D-02 -0.40550092D-02 -0.39712945D-02 -0.15618270D-02
 -0.20664948D-03 -0.64927737D-04 -0.24080294D-03 -0.19092505D-03 -0.91344741D-04
  0.14906128D-03  0.11818598D-03  0.56544011D-04 -0.45262641D-05 -0.35887320D-05
 -0.17169659D-05  0.20369865D-03 -0.27342769D-03  0.15787184D-04  0.43749164D-04
  0.11170370D-04 -0.54919534D-04 -0.19276981D-03  0.53907942D-05 -0.56613633D-05
  0.17670524D-03  0.31786123D-03  0.46336935D-03  0.45380320D-03  0.17847129D-03
 -0.33188528D-04  0.40282133D-03  0.96829325D-04  0.76772916D-04  0.36730655D-04
  0.93721865D-06  0.74309109D-06  0.35551890D-06 -0.51724797D-05 -0.41010959D-05
 -0.19620974D-05  0.10216214D-03 -0.49577750D-04  0.45669213D-06  0.34204265D-04
 -0.20023351D-04 -0.14180913D-04  0.21772233D-04 -0.74003706D-05 -0.49021174D-05
 -0.62263536D-05 -0.10562633D-04 -0.12025001D-04  0.38696404D-05 -0.40398048D-04
 -0.64394557D-04 -0.39890042D-05  0.17531805D-04  0.29741648D-04  0.33859301D-04
 -0.35391120D-04 -0.52087770D-04  0.85291237D-06  0.36563109D-04 -0.33335207D-04
 -0.56551165D-04 -0.64380525D-04 -0.15591265D-03  0.85970488D-04 -0.21353564D-05
 -0.52879954D-04 -0.49221010D-04 -0.83500468D-04 -0.95060889D-04  0.33655649D-04
 -0.40390239D-03 -0.34405790D-03  0.10094189D-03 -0.28499983D-04 -0.48348499D-04
 -0.55042222D-04  0.14388007D-04 -0.47252708D-03 -0.37798325D-03  0.39913533D-04
 -0.42363657D-03 -0.71867384D-03 -0.81817234D-03  0.14092634D-02  0.30083715D-03
 -0.12082801D-02  0.28509167D-02 -0.43679052D-03 -0.74098872D-03 -0.84357666D-03
  0.14266888D-02 -0.68727510D-04 -0.19959275D-02 -0.23748215D-02 -0.30302545D-04
 -0.51406437D-04 -0.58523523D-04 -0.52813432D-04  0.46200936D-03 -0.37165487D-03
 -0.24777251D-04 -0.22338941D-04 -0.37896663D-04 -0.43143357D-04 -0.31052388D-04
  0.47393446D-03 -0.37367600D-03  0.72169353D-04 -0.39197086D-04 -0.66495487D-04
 -0.75701613D-04 -0.16462497D-03 -0.15246891D-03  0.25619571D-04 -0.81511808D-04
 -0.38268441D-04 -0.64920098D-04 -0.73908115D-04 -0.14764466D-03 -0.13903500D-03
  0.58856621D-04  0.84956515D-04 -0.66697265D-05 -0.11314788D-04 -0.12881291D-04
 -0.44973604D-04  0.95150261D-06  0.14221813D-04  0.11290116D-04 -0.69082674D-05
 -0.11719458D-04 -0.13341986D-04 -0.46105551D-04 -0.39298991D-05  0.12149293D-04
 -0.16429904D-04 -0.25721642D-04 -0.43635212D-04 -0.49676392D-04 -0.11500183D-04
 -0.28870477D-04  0.80981040D-05  0.37276637D-06
MO    4     MO 0.0        OCC NO =    2.0000000  ORB. ENERGY =   -9.920823
 -0.81421090D-04 -0.14646203D-03 -0.21350831D-03 -0.20910048D-03 -0.82234842D-04
 -0.92476476D-05 -0.21154504D-04  0.53852979D-05  0.42698328D-05  0.20428266D-05
 -0.17436563D-05 -0.13824901D-05 -0.66142813D-06 -0.29323420D-06 -0.23249614D-06
 -0.11123370D-06  0.81738319D-05 -0.18351031D-05  0.92428121D-06 -0.35314125D-05
  0.15234216D-05  0.20079909D-05  0.53394948D-05  0.12859250D-04 -0.71683210D-05
  0.11404573D-02  0.20514795D-02  0.29905903D-02  0.29288502D-02  0.11518555D-02
 -0.16595846D-04 -0.60305155D-04  0.67237828D-04  0.53310752D-04  0.25505594D-04
 -0.69278392D-05 -0.54928651D-05 -0.26279650D-05 -0.25888120D-04 -0.20525874D-04
 -0.98202443D-05  0.28533102D-04  0.78867217D-05  0.22570291D-04 -0.92335358D-05
  0.17111042D-04 -0.78775057D-05  0.97043906D-05  0.28367656D-05 -0.16227555D-04
  0.31212162D-03  0.56145116D-03  0.81846804D-03  0.80157097D-03  0.31524107D-03
 -0.83660496D-04  0.55062339D-03 -0.12515605D-03 -0.99232287D-04 -0.47475947D-04
  0.12269885D-04  0.97284046D-05  0.46543845D-05  0.15893151D-04  0.12601178D-04
  0.60288126D-05 -0.11986593D-03 -0.84097047D-04  0.65220349D-05  0.35080388D-04
 -0.26421837D-04 -0.86585512D-05  0.24596391D-04 -0.17687085D-04  0.30105601D-05
  0.10978898D-02  0.19749080D-02  0.28789665D-02  0.28195309D-02  0.11088625D-02
 -0.11124807D-03 -0.29877463D-03  0.22135307D-03  0.17550387D-03  0.83966746D-04
  0.19369413D-03  0.15357396D-03  0.73474769D-04 -0.48056651D-04 -0.38102602D-04
 -0.18229522D-04 -0.13865409D-03 -0.34516967D-03  0.68068053D-04  0.15104461D-06
  0.45585417D-04 -0.45736462D-04  0.16318718D-03 -0.29070661D-04 -0.39259862D-04
 -0.23715640D-01 -0.42660210D-01 -0.62188879D-01 -0.60905005D-01 -0.23952663D-01
 -0.13234538D-02  0.28266715D-02  0.16076306D-02  0.12746396D-02  0.60982896D-03
  0.13072713D-02  0.10364942D-02  0.49589246D-03 -0.31709367D-03 -0.25141357D-03
 -0.12028441D-03 -0.57495706D-03 -0.47758901D-03  0.11171544D-03 -0.55345586D-03
 -0.16722532D-03  0.72068119D-03 -0.24199483D-02  0.56649274D-03  0.46762486D-03
  0.81025780D+00  0.14575094D+01  0.21247170D+01  0.20808527D+01  0.81835580D+00
  0.19400403D-01 -0.92388184D-02  0.29938681D-03  0.23737436D-03  0.11356760D-03
 -0.17567526D-02 -0.13928737D-02 -0.66639599D-03  0.24418513D-03  0.19360668D-03
  0.92627722D-04 -0.13773956D-03 -0.60389278D-03  0.10409644D-03 -0.11527994D-02
  0.20745824D-03  0.94534119D-03 -0.17786738D-03  0.34695365D-03  0.24835862D-03
 -0.80379386D-02 -0.14458819D-01 -0.21077668D-01 -0.20642525D-01 -0.81182726D-02
 -0.94952954D-03  0.24154201D-02 -0.19097080D-02 -0.15141473D-02 -0.72441719D-03
  0.11416264D-02  0.90515953D-03  0.43305770D-03 -0.31973865D-04 -0.25351069D-04
 -0.12128774D-04  0.66442828D-03 -0.31351757D-03 -0.20409469D-05 -0.99403458D-03
  0.14366860D-03  0.85036598D-03  0.24007892D-02 -0.91351665D-04  0.36746262D-04
  0.95655729D-06  0.16227416D-05  0.18474060D-05 -0.60382712D-05  0.18902938D-05
 -0.79132467D-06  0.18795627D-05 -0.18512823D-05 -0.31405886D-05 -0.35753948D-05
  0.11996652D-04 -0.33392210D-05 -0.33758127D-05 -0.79239359D-05 -0.19904501D-05
 -0.33766782D-05 -0.38441705D-05  0.35909296D-04 -0.89046872D-05  0.96907837D-05
  0.14627779D-04 -0.88613365D-05 -0.15032722D-04 -0.17113963D-04 -0.57960001D-04
 -0.40722006D-05  0.14159260D-04  0.17976916D-04 -0.13825296D-04 -0.23453779D-04
 -0.26700894D-04 -0.66617966D-04 -0.47942765D-05  0.12869542D-04 -0.18327361D-04
 -0.39305842D-04 -0.66679986D-04 -0.75911655D-04 -0.14518446D-03  0.16199794D-03
  0.72806932D-04  0.80585303D-04 -0.36112585D-04 -0.61262818D-04 -0.69744494D-04
 -0.14648282D-03  0.14212465D-03  0.41110263D-04 -0.12359940D-03 -0.21451857D-04
 -0.36391779D-04 -0.41430125D-04 -0.49141824D-04 -0.42443743D-03 -0.45040812D-03
 -0.48010268D-06 -0.23230220D-04 -0.39408664D-04 -0.44864691D-04 -0.50913625D-04
 -0.40791185D-03 -0.41756910D-03  0.19538531D-03 -0.43668543D-03 -0.74081044D-03
 -0.84337371D-03  0.14004680D-02  0.13190057D-04 -0.19961810D-02 -0.24060475D-02
 -0.43697135D-03 -0.74129548D-03 -0.84392590D-03  0.13979496D-02  0.40560650D-03
 -0.11946383D-02  0.28611439D-02 -0.30733433D-04 -0.52137411D-04 -0.59355699D-04
 -0.38267044D-04  0.39208053D-03 -0.30811631D-03 -0.25697597D-04 -0.30669047D-04
 -0.52028184D-04 -0.59231350D-04 -0.38695326D-04  0.39826478D-03 -0.29535442D-03
  0.58579117D-04 -0.28823527D-04 -0.48897371D-04 -0.55667084D-04 -0.14967471D-03
  0.12729663D-03 -0.10259078D-03  0.62844479D-05
MO    5     MO 0.0        OCC NO =    2.0000000  ORB. ENERGY =   -9.919425
  0.19774690D-03  0.35571143D-03  0.51854633D-03  0.50784107D-03  0.19972326D-03
  0.11311805D-04 -0.26919022D-05  0.27288431D-04  0.21636136D-04  0.10351430D-04
 -0.12651219D-04 -0.10030752D-04 -0.47990376D-05  0.12600412D-04  0.99904693D-05
  0.47797648D-05 -0.25414895D-04 -0.18784716D-04 -0.34432201D-04  0.45616625D-06
 -0.44944574D-05  0.40382912D-05  0.17170212D-04  0.96087541D-05  0.22980672D-04
 -0.64818601D-03 -0.11659711D-02 -0.16997206D-02 -0.16646302D-02 -0.65466421D-03
 -0.55989417D-05  0.27003798D-03 -0.92198274D-04 -0.73101102D-04 -0.34973940D-04
 -0.35868323D-04 -0.28438861D-04 -0.13606074D-04  0.35462349D-04  0.28116978D-04
  0.13452075D-04 -0.13912441D-03  0.53168777D-04 -0.27523807D-04  0.23041744D-04
 -0.22491635D-04 -0.55010856D-06  0.14090328D-04 -0.71262407D-05  0.36692474D-04
  0.59598280D-03  0.10720668D-02  0.15628295D-02  0.15305653D-02  0.60193926D-03
 -0.19977330D-03  0.42904022D-04  0.29968606D-03  0.23761162D-03  0.11368111D-03
 -0.90682905D-04 -0.71899614D-04 -0.34399109D-04 -0.88448239D-05 -0.70127818D-05
 -0.33551424D-05 -0.22579143D-03  0.27026232D-03 -0.93046142D-06  0.24478161D-04
 -0.37903503D-05 -0.20687811D-04 -0.28954277D-03  0.49757488D-04  0.22025473D-04
  0.16162743D-01  0.29073895D-01  0.42383123D-01  0.41508134D-01  0.16324280D-01
 -0.35327099D-03  0.21250771D-02  0.18630255D-02  0.14771342D-02  0.70670892D-03
 -0.11703098D-02 -0.92790175D-03 -0.44393832D-03  0.38614461D-04  0.30616188D-04
  0.14647778D-04 -0.62295456D-03  0.27977898D-03  0.64043056D-06 -0.10126109D-02
  0.15375563D-03  0.85885527D-03  0.23189780D-02 -0.87377592D-04  0.31894145D-04
  0.81015728D+00  0.14573285D+01  0.21244534D+01  0.20805946D+01  0.81825428D+00
  0.19389289D-01 -0.89302329D-02 -0.83506686D-04 -0.66209816D-04 -0.31676925D-04
  0.19561316D-02  0.15509550D-02  0.74202721D-03 -0.29113334D-03 -0.23083044D-03
 -0.11043678D-03 -0.90056779D-04  0.44667330D-03 -0.60842664D-04 -0.11910609D-02
  0.19565576D-03  0.99540518D-03 -0.17424356D-03  0.35355452D-03  0.26623437D-03
  0.24305002D-01  0.43720367D-01  0.63734347D-01  0.62418567D-01  0.24547915D-01
 -0.12906913D-03  0.19059445D-02 -0.16744707D-02 -0.13276350D-02 -0.63518368D-03
 -0.13886858D-02 -0.11010451D-02 -0.52677573D-03  0.33491108D-03  0.26554043D-03
  0.12704316D-03  0.56995164D-03  0.32370623D-03 -0.91710610D-04 -0.66844063D-03
 -0.13572554D-03  0.80416618D-03 -0.25199447D-02  0.61118947D-03  0.49183127D-03
 -0.18270931D-02 -0.32866149D-02 -0.47911367D-02 -0.46922248D-02 -0.18453538D-02
 -0.32184191D-03  0.33997067D-03 -0.21532764D-03 -0.17072649D-03 -0.81681095D-04
 -0.57866013D-04 -0.45880136D-04 -0.21950546D-04  0.25432011D-04  0.20164239D-04
  0.96472265D-05  0.86760071D-04  0.20008604D-03 -0.37562834D-04 -0.47070389D-05
  0.20325091D-04 -0.15618053D-04  0.34715401D-03 -0.55325241D-04 -0.38820807D-04
  0.37904670D-05  0.64302982D-05  0.73205562D-05  0.14399292D-04 -0.12810616D-04
  0.13966070D-04  0.71305411D-05  0.98374314D-07  0.16688608D-06  0.18999102D-06
  0.47950468D-04 -0.52677413D-05 -0.11830133D-04 -0.16414532D-04 -0.58087936D-06
 -0.98542672D-06 -0.11218565D-05 -0.38044314D-04  0.31237847D-04 -0.23544277D-04
 -0.71400210D-06 -0.43150848D-04 -0.73202807D-04 -0.83337543D-04 -0.18539535D-03
  0.15322286D-03 -0.27456206D-04  0.99246465D-04 -0.39874102D-04 -0.67644004D-04
 -0.77009139D-04 -0.16072743D-03  0.99323734D-04 -0.70978658D-04 -0.97150813D-04
 -0.42605204D-04 -0.72277153D-04 -0.82283735D-04  0.64398076D-05 -0.45206269D-03
  0.31053678D-03  0.46721687D-04 -0.43707820D-04 -0.74147675D-04 -0.84413226D-04