NWChem Job                                                                      
GAUSSIAN             88 MOL ORBITALS    790 PRIMITIVES       46 NUCLEI
  C    1    (CENTRE  1)   6.34060196  5.09983710 -1.11383165  CHARGE =  6.0
  C    2    (CENTRE  2)   5.81765666  6.82070558  0.84888560  CHARGE =  6.0
  C    3    (CENTRE  3)   3.81574808  6.31998289  2.53007524  CHARGE =  6.0
  C    4    (CENTRE  4)   2.33612746  4.13200885  2.23873173  CHARGE =  6.0
  C    5    (CENTRE  5)   2.82794323  2.38568631  0.26467239  CHARGE =  6.0
  C    6    (CENTRE  6)   4.87785465  2.89872344 -1.38861373  CHARGE =  6.0
  C    7    (CENTRE  7)   1.30690361  0.00154956 -0.00873606  CHARGE =  6.0
  C    8    (CENTRE  8)   2.84867582 -2.36898442 -0.27681471  CHARGE =  6.0
  C    9    (CENTRE  9)  -1.30934963 -0.00314030 -0.00871683  CHARGE =  6.0
  C   10    (CENTRE 10)  -2.83124289 -2.38695681  0.26395229  CHARGE =  6.0
  C   11    (CENTRE 11)  -2.84705052  2.37020424 -0.27488742  CHARGE =  6.0
  C   12    (CENTRE 12)  -2.33519737  4.16006467 -2.20577553  CHARGE =  6.0
  C   13    (CENTRE 13)  -3.83198062  6.33712394 -2.48532996  CHARGE =  6.0
  C   14    (CENTRE 14)  -5.87355321  6.78611684 -0.83762292  CHARGE =  6.0
  C   15    (CENTRE 15)  -6.41855440  5.02216687  1.07984096  CHARGE =  6.0
  C   16    (CENTRE 16)  -4.93709160  2.83254241  1.34367450  CHARGE =  6.0
  C   17    (CENTRE 17)  -2.34487055 -4.12823342  2.24397006  CHARGE =  6.0
  C   18    (CENTRE 18)  -3.82417790 -6.31595068  2.53675045  CHARGE =  6.0
  C   19    (CENTRE 19)  -5.81998041 -6.82286955  0.85042060  CHARGE =  6.0
  C   20    (CENTRE 20)  -6.33747431 -5.10755129 -1.11842172  CHARGE =  6.0
  C   21    (CENTRE 21)  -4.87558215 -2.90596803 -1.39413100  CHARGE =  6.0
  C   22    (CENTRE 22)   4.94637348 -2.82160373  1.33536820  CHARGE =  6.0
  C   23    (CENTRE 23)   6.43050984 -5.00952529  1.07308896  CHARGE =  6.0
  C   24    (CENTRE 24)   5.87885773 -6.78277199 -0.83414978  CHARGE =  6.0
  C   25    (CENTRE 25)   3.82835279 -6.34492016 -2.47362451  CHARGE =  6.0
  C   26    (CENTRE 26)   2.33003865 -4.16820633 -2.19678489  CHARGE =  6.0
  H   27    (CENTRE 27)   7.90335524  5.47109589 -2.43542413  CHARGE =  1.0
  H   28    (CENTRE 28)   6.97544742  8.53365255  1.07732386  CHARGE =  1.0
  H   29    (CENTRE 29)   3.40985149  7.63713359  4.08754127  CHARGE =  1.0
  H   30    (CENTRE 30)   0.78787907  3.74863777  3.56807065  CHARGE =  1.0
  H   31    (CENTRE 31)   5.31065283  1.55711991 -2.91568953  CHARGE =  1.0
  H   32    (CENTRE 32)  -0.75542229  3.82330065 -3.50961705  CHARGE =  1.0
  H   33    (CENTRE 33)  -3.40681022  7.68835476 -4.00839027  CHARGE =  1.0
  H   34    (CENTRE 34)  -7.04217583  8.49164796 -1.05551131  CHARGE =  1.0
  H   35    (CENTRE 35)  -8.01459823  5.34836061  2.37299032  CHARGE =  1.0
  H   36    (CENTRE 36)  -5.38910552  1.45769634  2.83509362  CHARGE =  1.0
  H   37    (CENTRE 37)  -0.80025513 -3.73961184  3.57599951  CHARGE =  1.0
  H   38    (CENTRE 38)  -3.42265667 -7.62803973  4.09952966  CHARGE =  1.0
  H   39    (CENTRE 39)  -6.97711607 -8.53590304  1.07916650  CHARGE =  1.0
  H   40    (CENTRE 40)  -7.89517947 -5.48282150 -2.44474509  CHARGE =  1.0
  H   41    (CENTRE 41)  -5.30516845 -1.56956793 -2.92641896  CHARGE =  1.0
  H   42    (CENTRE 42)   5.40202600 -1.44026902  2.81962405  CHARGE =  1.0
  H   43    (CENTRE 43)   8.03357444 -5.32807184  2.35930598  CHARGE =  1.0
  H   44    (CENTRE 44)   7.04889951 -8.48763285 -1.05034471  CHARGE =  1.0
  H   45    (CENTRE 45)   3.39625613 -7.70529282 -3.98654407  CHARGE =  1.0
  H   46    (CENTRE 46)   0.74331537 -3.83997349 -3.49390188  CHARGE =  1.0
CENTRE ASSIGNMENTS    1  1  1  1  1  1  1  1  1  1  1  1  1  1  1  1  1  1  1  1
CENTRE ASSIGNMENTS    1  1  1  1  1  2  2  2  2  2  2  2  2  2  2  2  2  2  2  2
CENTRE ASSIGNMENTS    2  2  2  2  2  2  2  2  2  2  3  3  3  3  3  3  3  3  3  3
CENTRE ASSIGNMENTS    3  3  3  3  3  3  3  3  3  3  3  3  3  3  3  4  4  4  4  4
CENTRE ASSIGNMENTS    4  4  4  4  4  4  4  4  4  4  4  4  4  4  4  4  4  4  4  4
CENTRE ASSIGNMENTS    5  5  5  5  5  5  5  5  5  5  5  5  5  5  5  5  5  5  5  5
CENTRE ASSIGNMENTS    5  5  5  5  5  6  6  6  6  6  6  6  6  6  6  6  6  6  6  6
CENTRE ASSIGNMENTS    6  6  6  6  6  6  6  6  6  6  7  7  7  7  7  7  7  7  7  7
CENTRE ASSIGNMENTS    7  7  7  7  7  7  7  7  7  7  7  7  7  7  7  8  8  8  8  8
CENTRE ASSIGNMENTS    8  8  8  8  8  8  8  8  8  8  8  8  8  8  8  8  8  8  8  8
CENTRE ASSIGNMENTS    9  9  9  9  9  9  9  9  9  9  9  9  9  9  9  9  9  9  9  9
CENTRE ASSIGNMENTS    9  9  9  9  9 10 10 10 10 10 10 10 10 10 10 10 10 10 10 10
CENTRE ASSIGNMENTS   10 10 10 10 10 10 10 10 10 10 11 11 11 11 11 11 11 11 11 11
CENTRE ASSIGNMENTS   11 11 11 11 11 11 11 11 11 11 11 11 11 11 11 12 12 12 12 12
CENTRE ASSIGNMENTS   12 12 12 12 12 12 12 12 12 12 12 12 12 12 12 12 12 12 12 12
CENTRE ASSIGNMENTS   13 13 13 13 13 13 13 13 13 13 13 13 13 13 13 13 13 13 13 13
CENTRE ASSIGNMENTS   13 13 13 13 13 14 14 14 14 14 14 14 14 14 14 14 14 14 14 14
CENTRE ASSIGNMENTS   14 14 14 14 14 14 14 14 14 14 15 15 15 15 15 15 15 15 15 15
CENTRE ASSIGNMENTS   15 15 15 15 15 15 15 15 15 15 15 15 15 15 15 16 16 16 16 16
CENTRE ASSIGNMENTS   16 16 16 16 16 16 16 16 16 16 16 16 16 16 16 16 16 16 16 16
CENTRE ASSIGNMENTS   17 17 17 17 17 17 17 17 17 17 17 17 17 17 17 17 17 17 17 17
CENTRE ASSIGNMENTS   17 17 17 17 17 18 18 18 18 18 18 18 18 18 18 18 18 18 18 18
CENTRE ASSIGNMENTS   18 18 18 18 18 18 18 18 18 18 19 19 19 19 19 19 19 19 19 19
CENTRE ASSIGNMENTS   19 19 19 19 19 19 19 19 19 19 19 19 19 19 19 20 20 20 20 20
CENTRE ASSIGNMENTS   20 20 20 20 20 20 20 20 20 20 20 20 20 20 20 20 20 20 20 20
CENTRE ASSIGNMENTS   21 21 21 21 21 21 21 21 21 21 21 21 21 21 21 21 21 21 21 21
CENTRE ASSIGNMENTS   21 21 21 21 21 22 22 22 22 22 22 22 22 22 22 22 22 22 22 22
CENTRE ASSIGNMENTS   22 22 22 22 22 22 22 22 22 22 23 23 23 23 23 23 23 23 23 23
CENTRE ASSIGNMENTS   23 23 23 23 23 23 23 23 23 23 23 23 23 23 23 24 24 24 24 24
CENTRE ASSIGNMENTS   24 24 24 24 24 24 24 24 24 24 24 24 24 24 24 24 24 24 24 24
CENTRE ASSIGNMENTS   25 25 25 25 25 25 25 25 25 25 25 25 25 25 25 25 25 25 25 25
CENTRE ASSIGNMENTS   25 25 25 25 25 26 26 26 26 26 26 26 26 26 26 26 26 26 26 26
CENTRE ASSIGNMENTS   26 26 26 26 26 26 26 26 26 26 27 27 27 27 27 27 27 28 28 28
CENTRE ASSIGNMENTS   28 28 28 28 29 29 29 29 29 29 29 30 30 30 30 30 30 30 31 31
CENTRE ASSIGNMENTS   31 31 31 31 31 32 32 32 32 32 32 32 33 33 33 33 33 33 33 34
CENTRE ASSIGNMENTS   34 34 34 34 34 34 35 35 35 35 35 35 35 36 36 36 36 36 36 36
CENTRE ASSIGNMENTS   37 37 37 37 37 37 37 38 38 38 38 38 38 38 39 39 39 39 39 39
CENTRE ASSIGNMENTS   39 40 40 40 40 40 40 40 41 41 41 41 41 41 41 42 42 42 42 42
CENTRE ASSIGNMENTS   42 42 43 43 43 43 43 43 43 44 44 44 44 44 44 44 45 45 45 45
CENTRE ASSIGNMENTS   45 45 45 46 46 46 46 46 46 46
TYPE ASSIGNMENTS      1  1  1  1  1  1  1  2  2  2  3  3  3  4  4  4  2  3  4  5
TYPE ASSIGNMENTS      6  7  8  9 10  1  1  1  1  1  1  1  2  2  2  3  3  3  4  4
TYPE ASSIGNMENTS      4  2  3  4  5  6  7  8  9 10  1  1  1  1  1  1  1  2  2  2
TYPE ASSIGNMENTS      3  3  3  4  4  4  2  3  4  5  6  7  8  9 10  1  1  1  1  1
TYPE ASSIGNMENTS      1  1  2  2  2  3  3  3  4  4  4  2  3  4  5  6  7  8  9 10
TYPE ASSIGNMENTS      1  1  1  1  1  1  1  2  2  2  3  3  3  4  4  4  2  3  4  5
TYPE ASSIGNMENTS      6  7  8  9 10  1  1  1  1  1  1  1  2  2  2  3  3  3  4  4
TYPE ASSIGNMENTS      4  2  3  4  5  6  7  8  9 10  1  1  1  1  1  1  1  2  2  2
TYPE ASSIGNMENTS      3  3  3  4  4  4  2  3  4  5  6  7  8  9 10  1  1  1  1  1
TYPE ASSIGNMENTS      1  1  2  2  2  3  3  3  4  4  4  2  3  4  5  6  7  8  9 10
TYPE ASSIGNMENTS      1  1  1  1  1  1  1  2  2  2  3  3  3  4  4  4  2  3  4  5
TYPE ASSIGNMENTS      6  7  8  9 10  1  1  1  1  1  1  1  2  2  2  3  3  3  4  4
TYPE ASSIGNMENTS      4  2  3  4  5  6  7  8  9 10  1  1  1  1  1  1  1  2  2  2
TYPE ASSIGNMENTS      3  3  3  4  4  4  2  3  4  5  6  7  8  9 10  1  1  1  1  1
TYPE ASSIGNMENTS      1  1  2  2  2  3  3  3  4  4  4  2  3  4  5  6  7  8  9 10
TYPE ASSIGNMENTS      1  1  1  1  1  1  1  2  2  2  3  3  3  4  4  4  2  3  4  5
TYPE ASSIGNMENTS      6  7  8  9 10  1  1  1  1  1  1  1  2  2  2  3  3  3  4  4
TYPE ASSIGNMENTS      4  2  3  4  5  6  7  8  9 10  1  1  1  1  1  1  1  2  2  2
TYPE ASSIGNMENTS      3  3  3  4  4  4  2  3  4  5  6  7  8  9 10  1  1  1  1  1
TYPE ASSIGNMENTS      1  1  2  2  2  3  3  3  4  4  4  2  3  4  5  6  7  8  9 10
TYPE ASSIGNMENTS      1  1  1  1  1  1  1  2  2  2  3  3  3  4  4  4  2  3  4  5
TYPE ASSIGNMENTS      6  7  8  9 10  1  1  1  1  1  1  1  2  2  2  3  3  3  4  4
TYPE ASSIGNMENTS      4  2  3  4  5  6  7  8  9 10  1  1  1  1  1  1  1  2  2  2
TYPE ASSIGNMENTS      3  3  3  4  4  4  2  3  4  5  6  7  8  9 10  1  1  1  1  1
TYPE ASSIGNMENTS      1  1  2  2  2  3  3  3  4  4  4  2  3  4  5  6  7  8  9 10
TYPE ASSIGNMENTS      1  1  1  1  1  1  1  2  2  2  3  3  3  4  4  4  2  3  4  5
TYPE ASSIGNMENTS      6  7  8  9 10  1  1  1  1  1  1  1  2  2  2  3  3  3  4  4
TYPE ASSIGNMENTS      4  2  3  4  5  6  7  8  9 10  1  1  1  1  1  1  1  2  2  2
TYPE ASSIGNMENTS      3  3  3  4  4  4  2  3  4  5  6  7  8  9 10  1  1  1  1  1
TYPE ASSIGNMENTS      1  1  2  2  2  3  3  3  4  4  4  2  3  4  5  6  7  8  9 10
TYPE ASSIGNMENTS      1  1  1  1  1  1  1  2  2  2  3  3  3  4  4  4  2  3  4  5
TYPE ASSIGNMENTS      6  7  8  9 10  1  1  1  1  1  1  1  2  2  2  3  3  3  4  4
TYPE ASSIGNMENTS      4  2  3  4  5  6  7  8  9 10  1  1  1  1  2  3  4  1  1  1
TYPE ASSIGNMENTS      1  2  3  4  1  1  1  1  2  3  4  1  1  1  1  2  3  4  1  1
TYPE ASSIGNMENTS      1  1  2  3  4  1  1  1  1  2  3  4  1  1  1  1  2  3  4  1
TYPE ASSIGNMENTS      1  1  1  2  3  4  1  1  1  1  2  3  4  1  1  1  1  2  3  4
TYPE ASSIGNMENTS      1  1  1  1  2  3  4  1  1  1  1  2  3  4  1  1  1  1  2  3
TYPE ASSIGNMENTS      4  1  1  1  1  2  3  4  1  1  1  1  2  3  4  1  1  1  1  2
TYPE ASSIGNMENTS      3  4  1  1  1  1  2  3  4  1  1  1  1  2  3  4  1  1  1  1
TYPE ASSIGNMENTS      2  3  4  1  1  1  1  2  3  4
EXPONENTS  1.2384017E+03 1.8629005E+02 4.2251176E+01 1.1676558E+01 3.5930506E+00
EXPONENTS  4.0245147E-01 1.3090183E-01 9.4680971E+00 2.0103545E+00 5.4771005E-01
EXPONENTS  9.4680971E+00 2.0103545E+00 5.4771005E-01 9.4680971E+00 2.0103545E+00
EXPONENTS  5.4771005E-01 1.5268614E-01 1.5268614E-01 1.5268614E-01 8.0000000E-01
EXPONENTS  8.0000000E-01 8.0000000E-01 8.0000000E-01 8.0000000E-01 8.0000000E-01
EXPONENTS  1.2384017E+03 1.8629005E+02 4.2251176E+01 1.1676558E+01 3.5930506E+00
EXPONENTS  4.0245147E-01 1.3090183E-01 9.4680971E+00 2.0103545E+00 5.4771005E-01
EXPONENTS  9.4680971E+00 2.0103545E+00 5.4771005E-01 9.4680971E+00 2.0103545E+00
EXPONENTS  5.4771005E-01 1.5268614E-01 1.5268614E-01 1.5268614E-01 8.0000000E-01
EXPONENTS  8.0000000E-01 8.0000000E-01 8.0000000E-01 8.0000000E-01 8.0000000E-01
EXPONENTS  1.2384017E+03 1.8629005E+02 4.2251176E+01 1.1676558E+01 3.5930506E+00
EXPONENTS  4.0245147E-01 1.3090183E-01 9.4680971E+00 2.0103545E+00 5.4771005E-01
EXPONENTS  9.4680971E+00 2.0103545E+00 5.4771005E-01 9.4680971E+00 2.0103545E+00
EXPONENTS  5.4771005E-01 1.5268614E-01 1.5268614E-01 1.5268614E-01 8.0000000E-01
EXPONENTS  8.0000000E-01 8.0000000E-01 8.0000000E-01 8.0000000E-01 8.0000000E-01
EXPONENTS  1.2384017E+03 1.8629005E+02 4.2251176E+01 1.1676558E+01 3.5930506E+00
EXPONENTS  4.0245147E-01 1.3090183E-01 9.4680971E+00 2.0103545E+00 5.4771005E-01
EXPONENTS  9.4680971E+00 2.0103545E+00 5.4771005E-01 9.4680971E+00 2.0103545E+00
EXPONENTS  5.4771005E-01 1.5268614E-01 1.5268614E-01 1.5268614E-01 8.0000000E-01
EXPONENTS  8.0000000E-01 8.0000000E-01 8.0000000E-01 8.0000000E-01 8.0000000E-01
EXPONENTS  1.2384017E+03 1.8629005E+02 4.2251176E+01 1.1676558E+01 3.5930506E+00
EXPONENTS  4.0245147E-01 1.3090183E-01 9.4680971E+00 2.0103545E+00 5.4771005E-01
EXPONENTS  9.4680971E+00 2.0103545E+00 5.4771005E-01 9.4680971E+00 2.0103545E+00
EXPONENTS  5.4771005E-01 1.5268614E-01 1.5268614E-01 1.5268614E-01 8.0000000E-01
EXPONENTS  8.0000000E-01 8.0000000E-01 8.0000000E-01 8.0000000E-01 8.0000000E-01
EXPONENTS  1.2384017E+03 1.8629005E+02 4.2251176E+01 1.1676558E+01 3.5930506E+00
EXPONENTS  4.0245147E-01 1.3090183E-01 9.4680971E+00 2.0103545E+00 5.4771005E-01
EXPONENTS  9.4680971E+00 2.0103545E+00 5.4771005E-01 9.4680971E+00 2.0103545E+00
EXPONENTS  5.4771005E-01 1.5268614E-01 1.5268614E-01 1.5268614E-01 8.0000000E-01
EXPONENTS  8.0000000E-01 8.0000000E-01 8.0000000E-01 8.0000000E-01 8.0000000E-01
EXPONENTS  1.2384017E+03 1.8629005E+02 4.2251176E+01 1.1676558E+01 3.5930506E+00
EXPONENTS  4.0245147E-01 1.3090183E-01 9.4680971E+00 2.0103545E+00 5.4771005E-01
EXPONENTS  9.4680971E+00 2.0103545E+00 5.4771005E-01 9.4680971E+00 2.0103545E+00
EXPONENTS  5.4771005E-01 1.5268614E-01 1.5268614E-01 1.5268614E-01 8.0000000E-01
EXPONENTS  8.0000000E-01 8.0000000E-01 8.0000000E-01 8.0000000E-01 8.0000000E-01
EXPONENTS  1.2384017E+03 1.8629005E+02 4.2251176E+01 1.1676558E+01 3.5930506E+00
EXPONENTS  4.0245147E-01 1.3090183E-01 9.4680971E+00 2.0103545E+00 5.4771005E-01
EXPONENTS  9.4680971E+00 2.0103545E+00 5.4771005E-01 9.4680971E+00 2.0103545E+00
EXPONENTS  5.4771005E-01 1.5268614E-01 1.5268614E-01 1.5268614E-01 8.0000000E-01
EXPONENTS  8.0000000E-01 8.0000000E-01 8.0000000E-01 8.0000000E-01 8.0000000E-01
EXPONENTS  1.2384017E+03 1.8629005E+02 4.2251176E+01 1.1676558E+01 3.5930506E+00
EXPONENTS  4.0245147E-01 1.3090183E-01 9.4680971E+00 2.0103545E+00 5.4771005E-01
EXPONENTS  9.4680971E+00 2.0103545E+00 5.4771005E-01 9.4680971E+00 2.0103545E+00
EXPONENTS  5.4771005E-01 1.5268614E-01 1.5268614E-01 1.5268614E-01 8.0000000E-01
EXPONENTS  8.0000000E-01 8.0000000E-01 8.0000000E-01 8.0000000E-01 8.0000000E-01
EXPONENTS  1.2384017E+03 1.8629005E+02 4.2251176E+01 1.1676558E+01 3.5930506E+00
EXPONENTS  4.0245147E-01 1.3090183E-01 9.4680971E+00 2.0103545E+00 5.4771005E-01
EXPONENTS  9.4680971E+00 2.0103545E+00 5.4771005E-01 9.4680971E+00 2.0103545E+00
EXPONENTS  5.4771005E-01 1.5268614E-01 1.5268614E-01 1.5268614E-01 8.0000000E-01
EXPONENTS  8.0000000E-01 8.0000000E-01 8.0000000E-01 8.0000000E-01 8.0000000E-01
EXPONENTS  1.2384017E+03 1.8629005E+02 4.2251176E+01 1.1676558E+01 3.5930506E+00
EXPONENTS  4.0245147E-01 1.3090183E-01 9.4680971E+00 2.0103545E+00 5.4771005E-01
EXPONENTS  9.4680971E+00 2.0103545E+00 5.4771005E-01 9.4680971E+00 2.0103545E+00
EXPONENTS  5.4771005E-01 1.5268614E-01 1.5268614E-01 1.5268614E-01 8.0000000E-01
EXPONENTS  8.0000000E-01 8.0000000E-01 8.0000000E-01 8.0000000E-01 8.0000000E-01
EXPONENTS  1.2384017E+03 1.8629005E+02 4.2251176E+01 1.1676558E+01 3.5930506E+00
EXPONENTS  4.0245147E-01 1.3090183E-01 9.4680971E+00 2.0103545E+00 5.4771005E-01
EXPONENTS  9.4680971E+00 2.0103545E+00 5.4771005E-01 9.4680971E+00 2.0103545E+00
EXPONENTS  5.4771005E-01 1.5268614E-01 1.5268614E-01 1.5268614E-01 8.0000000E-01
EXPONENTS  8.0000000E-01 8.0000000E-01 8.0000000E-01 8.0000000E-01 8.0000000E-01
EXPONENTS  1.2384017E+03 1.8629005E+02 4.2251176E+01 1.1676558E+01 3.5930506E+00
EXPONENTS  4.0245147E-01 1.3090183E-01 9.4680971E+00 2.0103545E+00 5.4771005E-01
EXPONENTS  9.4680971E+00 2.0103545E+00 5.4771005E-01 9.4680971E+00 2.0103545E+00
EXPONENTS  5.4771005E-01 1.5268614E-01 1.5268614E-01 1.5268614E-01 8.0000000E-01
EXPONENTS  8.0000000E-01 8.0000000E-01 8.0000000E-01 8.0000000E-01 8.0000000E-01
EXPONENTS  1.2384017E+03 1.8629005E+02 4.2251176E+01 1.1676558E+01 3.5930506E+00
EXPONENTS  4.0245147E-01 1.3090183E-01 9.4680971E+00 2.0103545E+00 5.4771005E-01
EXPONENTS  9.4680971E+00 2.0103545E+00 5.4771005E-01 9.4680971E+00 2.0103545E+00
EXPONENTS  5.4771005E-01 1.5268614E-01 1.5268614E-01 1.5268614E-01 8.0000000E-01
EXPONENTS  8.0000000E-01 8.0000000E-01 8.0000000E-01 8.0000000E-01 8.0000000E-01
EXPONENTS  1.2384017E+03 1.8629005E+02 4.2251176E+01 1.1676558E+01 3.5930506E+00
EXPONENTS  4.0245147E-01 1.3090183E-01 9.4680971E+00 2.0103545E+00 5.4771005E-01
EXPONENTS  9.4680971E+00 2.0103545E+00 5.4771005E-01 9.4680971E+00 2.0103545E+00
EXPONENTS  5.4771005E-01 1.5268614E-01 1.5268614E-01 1.5268614E-01 8.0000000E-01
EXPONENTS  8.0000000E-01 8.0000000E-01 8.0000000E-01 8.0000000E-01 8.0000000E-01
EXPONENTS  1.2384017E+03 1.8629005E+02 4.2251176E+01 1.1676558E+01 3.5930506E+00
EXPONENTS  4.0245147E-01 1.3090183E-01 9.4680971E+00 2.0103545E+00 5.4771005E-01
EXPONENTS  9.4680971E+00 2.0103545E+00 5.4771005E-01 9.4680971E+00 2.0103545E+00
EXPONENTS  5.4771005E-01 1.5268614E-01 1.5268614E-01 1.5268614E-01 8.0000000E-01
EXPONENTS  8.0000000E-01 8.0000000E-01 8.0000000E-01 8.0000000E-01 8.0000000E-01
EXPONENTS  1.2384017E+03 1.8629005E+02 4.2251176E+01 1.1676558E+01 3.5930506E+00
EXPONENTS  4.0245147E-01 1.3090183E-01 9.4680971E+00 2.0103545E+00 5.4771005E-01
EXPONENTS  9.4680971E+00 2.0103545E+00 5.4771005E-01 9.4680971E+00 2.0103545E+00
EXPONENTS  5.4771005E-01 1.5268614E-01 1.5268614E-01 1.5268614E-01 8.0000000E-01
EXPONENTS  8.0000000E-01 8.0000000E-01 8.0000000E-01 8.0000000E-01 8.0000000E-01
EXPONENTS  1.2384017E+03 1.8629005E+02 4.2251176E+01 1.1676558E+01 3.5930506E+00
EXPONENTS  4.0245147E-01 1.3090183E-01 9.4680971E+00 2.0103545E+00 5.4771005E-01
EXPONENTS  9.4680971E+00 2.0103545E+00 5.4771005E-01 9.4680971E+00 2.0103545E+00
EXPONENTS  5.4771005E-01 1.5268614E-01 1.5268614E-01 1.5268614E-01 8.0000000E-01
EXPONENTS  8.0000000E-01 8.0000000E-01 8.0000000E-01 8.0000000E-01 8.0000000E-01
EXPONENTS  1.2384017E+03 1.8629005E+02 4.2251176E+01 1.1676558E+01 3.5930506E+00
EXPONENTS  4.0245147E-01 1.3090183E-01 9.4680971E+00 2.0103545E+00 5.4771005E-01
EXPONENTS  9.4680971E+00 2.0103545E+00 5.4771005E-01 9.4680971E+00 2.0103545E+00
EXPONENTS  5.4771005E-01 1.5268614E-01 1.5268614E-01 1.5268614E-01 8.0000000E-01
EXPONENTS  8.0000000E-01 8.0000000E-01 8.0000000E-01 8.0000000E-01 8.0000000E-01
EXPONENTS  1.2384017E+03 1.8629005E+02 4.2251176E+01 1.1676558E+01 3.5930506E+00
EXPONENTS  4.0245147E-01 1.3090183E-01 9.4680971E+00 2.0103545E+00 5.4771005E-01
EXPONENTS  9.4680971E+00 2.0103545E+00 5.4771005E-01 9.4680971E+00 2.0103545E+00
EXPONENTS  5.4771005E-01 1.5268614E-01 1.5268614E-01 1.5268614E-01 8.0000000E-01
EXPONENTS  8.0000000E-01 8.0000000E-01 8.0000000E-01 8.0000000E-01 8.0000000E-01
EXPONENTS  1.2384017E+03 1.8629005E+02 4.2251176E+01 1.1676558E+01 3.5930506E+00
EXPONENTS  4.0245147E-01 1.3090183E-01 9.4680971E+00 2.0103545E+00 5.4771005E-01
EXPONENTS  9.4680971E+00 2.0103545E+00 5.4771005E-01 9.4680971E+00 2.0103545E+00
EXPONENTS  5.4771005E-01 1.5268614E-01 1.5268614E-01 1.5268614E-01 8.0000000E-01
EXPONENTS  8.0000000E-01 8.0000000E-01 8.0000000E-01 8.0000000E-01 8.0000000E-01
EXPONENTS  1.2384017E+03 1.8629005E+02 4.2251176E+01 1.1676558E+01 3.5930506E+00
EXPONENTS  4.0245147E-01 1.3090183E-01 9.4680971E+00 2.0103545E+00 5.4771005E-01
EXPONENTS  9.4680971E+00 2.0103545E+00 5.4771005E-01 9.4680971E+00 2.0103545E+00
EXPONENTS  5.4771005E-01 1.5268614E-01 1.5268614E-01 1.5268614E-01 8.0000000E-01
EXPONENTS  8.0000000E-01 8.0000000E-01 8.0000000E-01 8.0000000E-01 8.0000000E-01
EXPONENTS  1.2384017E+03 1.8629005E+02 4.2251176E+01 1.1676558E+01 3.5930506E+00
EXPONENTS  4.0245147E-01 1.3090183E-01 9.4680971E+00 2.0103545E+00 5.4771005E-01
EXPONENTS  9.4680971E+00 2.0103545E+00 5.4771005E-01 9.4680971E+00 2.0103545E+00
EXPONENTS  5.4771005E-01 1.5268614E-01 1.5268614E-01 1.5268614E-01 8.0000000E-01
EXPONENTS  8.0000000E-01 8.0000000E-01 8.0000000E-01 8.0000000E-01 8.0000000E-01
EXPONENTS  1.2384017E+03 1.8629005E+02 4.2251176E+01 1.1676558E+01 3.5930506E+00
EXPONENTS  4.0245147E-01 1.3090183E-01 9.4680971E+00 2.0103545E+00 5.4771005E-01
EXPONENTS  9.4680971E+00 2.0103545E+00 5.4771005E-01 9.4680971E+00 2.0103545E+00
EXPONENTS  5.4771005E-01 1.5268614E-01 1.5268614E-01 1.5268614E-01 8.0000000E-01
EXPONENTS  8.0000000E-01 8.0000000E-01 8.0000000E-01 8.0000000E-01 8.0000000E-01
EXPONENTS  1.2384017E+03 1.8629005E+02 4.2251176E+01 1.1676558E+01 3.5930506E+00
EXPONENTS  4.0245147E-01 1.3090183E-01 9.4680971E+00 2.0103545E+00 5.4771005E-01
EXPONENTS  9.4680971E+00 2.0103545E+00 5.4771005E-01 9.4680971E+00 2.0103545E+00
EXPONENTS  5.4771005E-01 1.5268614E-01 1.5268614E-01 1.5268614E-01 8.0000000E-01
EXPONENTS  8.0000000E-01 8.0000000E-01 8.0000000E-01 8.0000000E-01 8.0000000E-01
EXPONENTS  1.2384017E+03 1.8629005E+02 4.2251176E+01 1.1676558E+01 3.5930506E+00
EXPONENTS  4.0245147E-01 1.3090183E-01 9.4680971E+00 2.0103545E+00 5.4771005E-01
EXPONENTS  9.4680971E+00 2.0103545E+00 5.4771005E-01 9.4680971E+00 2.0103545E+00
EXPONENTS  5.4771005E-01 1.5268614E-01 1.5268614E-01 1.5268614E-01 8.0000000E-01
EXPONENTS  8.0000000E-01 8.0000000E-01 8.0000000E-01 8.0000000E-01 8.0000000E-01
EXPONENTS  1.3010701E+01 1.9622572E+00 4.4453796E-01 1.2194962E-01 8.0000000E-01
EXPONENTS  8.0000000E-01 8.0000000E-01 1.3010701E+01 1.9622572E+00 4.4453796E-01
EXPONENTS  1.2194962E-01 8.0000000E-01 8.0000000E-01 8.0000000E-01 1.3010701E+01
EXPONENTS  1.9622572E+00 4.4453796E-01 1.2194962E-01 8.0000000E-01 8.0000000E-01
EXPONENTS  8.0000000E-01 1.3010701E+01 1.9622572E+00 4.4453796E-01 1.2194962E-01
EXPONENTS  8.0000000E-01 8.0000000E-01 8.0000000E-01 1.3010701E+01 1.9622572E+00
EXPONENTS  4.4453796E-01 1.2194962E-01 8.0000000E-01 8.0000000E-01 8.0000000E-01
EXPONENTS  1.3010701E+01 1.9622572E+00 4.4453796E-01 1.2194962E-01 8.0000000E-01
EXPONENTS  8.0000000E-01 8.0000000E-01 1.3010701E+01 1.9622572E+00 4.4453796E-01
EXPONENTS  1.2194962E-01 8.0000000E-01 8.0000000E-01 8.0000000E-01 1.3010701E+01
EXPONENTS  1.9622572E+00 4.4453796E-01 1.2194962E-01 8.0000000E-01 8.0000000E-01
EXPONENTS  8.0000000E-01 1.3010701E+01 1.9622572E+00 4.4453796E-01 1.2194962E-01
EXPONENTS  8.0000000E-01 8.0000000E-01 8.0000000E-01 1.3010701E+01 1.9622572E+00
EXPONENTS  4.4453796E-01 1.2194962E-01 8.0000000E-01 8.0000000E-01 8.0000000E-01
EXPONENTS  1.3010701E+01 1.9622572E+00 4.4453796E-01 1.2194962E-01 8.0000000E-01
EXPONENTS  8.0000000E-01 8.0000000E-01 1.3010701E+01 1.9622572E+00 4.4453796E-01
EXPONENTS  1.2194962E-01 8.0000000E-01 8.0000000E-01 8.0000000E-01 1.3010701E+01
EXPONENTS  1.9622572E+00 4.4453796E-01 1.2194962E-01 8.0000000E-01 8.0000000E-01
EXPONENTS  8.0000000E-01 1.3010701E+01 1.9622572E+00 4.4453796E-01 1.2194962E-01
EXPONENTS  8.0000000E-01 8.0000000E-01 8.0000000E-01 1.3010701E+01 1.9622572E+00
EXPONENTS  4.4453796E-01 1.2194962E-01 8.0000000E-01 8.0000000E-01 8.0000000E-01
EXPONENTS  1.3010701E+01 1.9622572E+00 4.4453796E-01 1.2194962E-01 8.0000000E-01
EXPONENTS  8.0000000E-01 8.0000000E-01 1.3010701E+01 1.9622572E+00 4.4453796E-01
EXPONENTS  1.2194962E-01 8.0000000E-01 8.0000000E-01 8.0000000E-01 1.3010701E+01
EXPONENTS  1.9622572E+00 4.4453796E-01 1.2194962E-01 8.0000000E-01 8.0000000E-01
EXPONENTS  8.0000000E-01 1.3010701E+01 1.9622572E+00 4.4453796E-01 1.2194962E-01
EXPONENTS  8.0000000E-01 8.0000000E-01 8.0000000E-01 1.3010701E+01 1.9622572E+00
EXPONENTS  4.4453796E-01 1.2194962E-01 8.0000000E-01 8.0000000E-01 8.0000000E-01
MO  1                     OCC NO =   2.00000000 ORB. ENERGY = -10.24419325
  5.69693786E-04  1.02477758E-03  1.49389253E-03  1.46305148E-03  5.75387508E-04
  8.59660612E-05  2.41173931E-03 -9.70638330E-05 -7.69588508E-05 -3.68196121E-05
 -1.04618488E-04 -8.29486986E-05 -3.96853497E-05 -6.80530751E-07 -5.39571361E-07
 -2.58148452E-07 -5.94225542E-04 -3.30982630E-04  3.13768178E-04 -2.61991295E-05
  3.40933447E-05 -7.89421515E-06  1.16102115E-04 -4.59788004E-05  1.02858169E-04
  4.96894996E-04  8.93825529E-04  1.30299424E-03  1.27609424E-03  5.01861141E-04
  2.09121039E-04 -1.37454296E-03 -7.60186959E-05 -6.02728256E-05 -2.88364761E-05
 -1.07695615E-04 -8.53884549E-05 -4.08526083E-05 -5.92053590E-05 -4.69420612E-05
 -2.24586057E-05  2.94404957E-04  6.21376585E-04  2.34691079E-04  1.29539870E-06
  7.58198180E-06 -8.87738051E-06 -2.22065816E-05  5.18916312E-05 -3.57668915E-05
  6.54879639E-04  1.17801174E-03  1.71727308E-03  1.68182040E-03  6.61424739E-04
  8.55975013E-05  2.89327061E-03 -1.17505452E-04 -9.31663655E-05 -4.45738132E-05
 -1.67093377E-04 -1.32483067E-04 -6.33841993E-05 -5.45383251E-05 -4.32417173E-05
 -2.06882410E-05 -4.44770843E-04 -9.63624337E-04 -3.62623434E-04  2.17968991E-05
  5.33870192E-05 -7.51839183E-05  2.35797078E-04 -9.49710548E-05  7.38679031E-05
 -1.29060076E-04 -2.32156073E-04 -3.38430731E-04 -3.31443911E-04 -1.30349949E-04
 -2.12602377E-04 -2.48705777E-03  3.76628964E-04  2.98617223E-04  1.42868172E-04
  7.68929523E-04  6.09659959E-04  2.91681112E-04  2.57604269E-04  2.04246298E-04
  9.77180581E-05 -1.16666417E-03 -1.34588933E-03  1.70983225E-04 -7.91829368E-07
 -4.62494732E-05  4.70413026E-05 -1.84665564E-04 -6.57848371E-05  1.44375046E-04
  9.44826488E-03  1.69957444E-02  2.47759282E-02  2.42644352E-02  9.54269421E-03
 -2.20918423E-04  2.82141875E-04  4.38722520E-04  3.47849244E-04  1.66422369E-04
  5.56547382E-04  4.41268860E-04  2.11117345E-04 -1.29157442E-05 -1.02404861E-05
 -4.89938092E-06  8.28117539E-04  1.48325459E-03  4.13238374E-05  3.86523426E-04
 -9.52480234E-04  5.65956807E-04 -1.45813639E-03  3.55591932E-05 -2.90601219E-04
  2.71246749E-04  4.87924554E-04  7.11282979E-04  6.96598715E-04  2.73957686E-04
 -7.11954380E-05 -1.95390090E-03  3.04678379E-04  2.41569874E-04  1.15574868E-04
  3.78736374E-04  3.00288122E-04  1.43667584E-04 -3.76062189E-05 -2.98167845E-05
 -1.42653175E-05 -2.24257655E-04 -1.12682973E-03 -5.53105953E-04 -3.36571449E-05
  4.59800302E-06  2.90591419E-05  4.22569389E-05  8.86221253E-06 -8.92055698E-05
  5.69348621E-01  1.02415669E+00  1.49298742E+00  1.46216506E+00  5.75038894E-01
  1.16029774E-02 -4.40836290E-05  2.12783807E-03  1.68709567E-03  8.07161327E-04
  2.16565673E-05  1.71708090E-05  8.21507233E-06  2.05135771E-05  1.62645681E-05
  7.78149727E-06  7.43576489E-04 -1.60297972E-06 -1.77948068E-06 -3.32997132E-04
  9.98442001E-04 -6.65444869E-04 -1.48032194E-05 -1.43679273E-07  1.28150759E-04
  9.18505638E-03  1.65222793E-02  2.40857237E-02  2.35884798E-02  9.27685511E-03
 -2.64860345E-04  3.69014058E-04  4.71818714E-04  3.74090172E-04  1.78976880E-04
 -5.65082164E-04 -4.48035820E-04 -2.14354878E-04  1.22652094E-05  9.72469759E-06
  4.65261097E-06  8.29728845E-04 -1.49396990E-03 -6.23875461E-05  3.57559903E-04
 -9.29646776E-04  5.72086873E-04  1.47817470E-03 -3.54082080E-05 -2.72823147E-04
  5.78113456E-01  1.03992306E+00  1.51597120E+00  1.48467435E+00  5.83891328E-01
  1.18126945E-02 -9.69133691E-05 -2.09941334E-03 -1.66455860E-03 -7.96378861E-04
 -1.93583240E-05 -1.53486043E-05 -7.34327047E-06  2.09547242E-05  1.66143397E-05
  7.94883936E-06 -7.18618421E-04  1.05948525E-06 -7.35132323E-07 -2.99605157E-04
  9.92210235E-04 -6.92605078E-04 -1.19633082E-05 -8.70768900E-07 -1.34670641E-04
  9.70847124E-03  1.74638093E-02  2.54582603E-02  2.49326807E-02  9.80550116E-03
 -2.18877838E-04  3.09107655E-04 -4.40231412E-04 -3.49045597E-04 -1.66994743E-04
 -5.67908202E-04 -4.50276496E-04 -2.15426890E-04 -5.55761246E-06 -4.40645557E-06
 -2.10819137E-06 -8.47552413E-04 -1.48493297E-03  2.96539846E-05  3.84164122E-04
 -9.61186712E-04  5.77022590E-04 -1.48221758E-03 -2.92282590E-05  2.99292452E-04
  9.38051998E-03  1.68738834E-02  2.45982826E-02  2.40904571E-02  9.47427224E-03
 -2.62126030E-04  3.91125497E-04 -4.69003136E-04 -3.71857790E-04 -1.77908836E-04
  5.79414570E-04  4.59399532E-04  2.19791647E-04  6.76370266E-06  5.36272644E-06
  2.56570239E-06 -8.44688799E-04  1.49195044E-03 -5.06890009E-05  3.61685212E-04
 -9.43786304E-04  5.82101091E-04  1.49682282E-03  3.18410315E-05  2.80006821E-04
 -1.30010094E-04 -2.33864985E-04 -3.40921936E-04 -3.33883686E-04 -1.31309461E-04
 -2.09398205E-04 -2.55850927E-03 -3.76074941E-04 -2.98177955E-04 -1.42658012E-04
  7.80202174E-04  6.18597688E-04  2.95957212E-04 -2.45479401E-04 -1.94632872E-04
 -9.31186832E-05  1.19714288E-03 -1.31827440E-03 -1.98062243E-04  9.79406701E-07
 -4.46665251E-05  4.36871184E-05  1.89960738E-04 -6.44643498E-05 -1.38823180E-04
  6.49051285E-04  1.16752757E-03  1.70198955E-03  1.66685239E-03  6.55538135E-04
  8.45816858E-05  2.92885096E-03  1.19983580E-04  9.51311947E-05  4.55138512E-05
 -1.70808501E-04 -1.35428671E-04 -6.47934718E-05  5.08064202E-05  4.02828076E-05
  1.92726026E-05  4.40124951E-04 -9.71535034E-04  3.68158460E-04  2.71770906E-05
  5.19371056E-05 -7.91141962E-05 -2.34514884E-04 -9.43029473E-05 -7.80556149E-05
  4.89669695E-04  8.80828502E-04  1.28404754E-03  1.25753869E-03  4.94563629E-04
  2.09056703E-04 -1.41178079E-03  7.55279636E-05  5.98837394E-05  2.86503246E-05
 -1.07603898E-04 -8.53157361E-05 -4.08178173E-05  5.79838736E-05  4.59735839E-05
  2.19952547E-05 -3.05153442E-04  6.31186433E-04 -2.27396531E-04 -4.67899207E-07
  7.37455045E-06 -6.90665124E-06  1.96459906E-05  5.37173868E-05  3.80824301E-05
  5.71010374E-04  1.02714588E-03  1.49734498E-03  1.46643266E-03  5.76717255E-04
  8.83468593E-05  2.45246907E-03  9.94427157E-05  7.88449918E-05  3.77220032E-05
 -1.08750974E-04 -8.62252160E-05 -4.12529420E-05  1.59870801E-06  1.26756514E-06
  6.06444307E-07  6.18536988E-04 -3.23864304E-04 -3.16010158E-04 -2.25015618E-05
  3.51064722E-05 -1.26049104E-05 -1.15351651E-04 -4.94580652E-05 -1.04457201E-04
  2.55171271E-04  4.59007633E-04  6.69128689E-04  6.55314690E-04  2.57721543E-04
 -7.72946196E-05 -1.98793727E-03 -3.16088484E-04 -2.50616586E-04 -1.19903109E-04
  3.86177609E-04  3.06188042E-04  1.46490297E-04  3.46130606E-05  2.74436037E-05
  1.31299108E-05  2.26652620E-04 -1.15860266E-03  5.54662527E-04 -3.51045648E-05
  4.80203109E-06  3.03025337E-05 -4.52433663E-05 -5.22117293E-07  8.14849917E-05
 -1.17070699E-04 -2.10589320E-04 -3.06991312E-04 -3.00653551E-04 -1.18240745E-04
 -2.12969826E-04 -2.48944434E-03 -3.77277888E-04 -2.99131734E-04 -1.43114331E-04
 -7.71313256E-04 -6.11549945E-04 -2.92585343E-04  2.58225716E-04  2.04739023E-04
  9.79537940E-05  1.17433530E-03  1.35917874E-03  1.69312851E-04 -2.69345594E-06
 -4.48065580E-05  4.75000139E-05 -1.79869133E-04  6.63664509E-05 -1.45104149E-04
  6.64591243E-04  1.19548119E-03  1.74273956E-03  1.70676112E-03  6.71233405E-04
  8.80217667E-05  2.91207125E-03  1.16549175E-04  9.24081639E-05  4.42110649E-05