 C1=CC=C(C=C1)C1=NC(C2=CC=CC=C2)=C(N=C1C1=CC=CC=C1)C1=CC=
GAUSSIAN            101 MOL ORBITALS    890 PRIMITIVES       50 NUCLEI
  N    1    (CENTRE  1)   0.00000000  0.00000000 -2.57736290  CHARGE =  7.0
  C    2    (CENTRE  2)   2.21403108  0.21437720 -1.34683734  CHARGE =  6.0
  C    3    (CENTRE  3)   2.21403108 -0.21437720  1.34683734  CHARGE =  6.0
  N    4    (CENTRE  4)  -0.00000000  0.00000000  2.57736290  CHARGE =  7.0
  C    5    (CENTRE  5)  -2.21403108  0.21437720  1.34683734  CHARGE =  6.0
  C    6    (CENTRE  6)  -2.21403108 -0.21437720 -1.34683734  CHARGE =  6.0
  C    7    (CENTRE  7)  -4.45725448  0.95675013  2.89131065  CHARGE =  6.0
  C    8    (CENTRE  8)  -4.45725448 -0.95675013 -2.89131065  CHARGE =  6.0
  C    9    (CENTRE  9)   4.45725448  0.95675013 -2.89131065  CHARGE =  6.0
  C   10    (CENTRE 10)   4.45725448 -0.95675013  2.89131065  CHARGE =  6.0
  C   11    (CENTRE 11)  -8.43893384  3.27362811  3.41510173  CHARGE =  6.0
  C   12    (CENTRE 12)  -8.58920637  2.48731549  5.95389702  CHARGE =  6.0
  C   13    (CENTRE 13)  -6.66521513  0.95245789  6.96943889  CHARGE =  6.0
  C   14    (CENTRE 14)  -4.61233509  0.20582427  5.46034297  CHARGE =  6.0
  C   15    (CENTRE 15)  -6.39760834  2.51438849  1.89483710  CHARGE =  6.0
  C   16    (CENTRE 16)  -6.39760834 -2.51438849 -1.89483710  CHARGE =  6.0
  C   17    (CENTRE 17)  -8.43893384 -3.27362811 -3.41510173  CHARGE =  6.0
  C   18    (CENTRE 18)  -8.58920637 -2.48731549 -5.95389702  CHARGE =  6.0
  C   19    (CENTRE 19)  -6.66521513 -0.95245789 -6.96943889  CHARGE =  6.0
  C   20    (CENTRE 20)  -4.61233509 -0.20582427 -5.46034297  CHARGE =  6.0
  C   21    (CENTRE 21)   4.61233509  0.20582427 -5.46034297  CHARGE =  6.0
  C   22    (CENTRE 22)   6.39760834  2.51438849 -1.89483710  CHARGE =  6.0
  C   23    (CENTRE 23)   8.43893384  3.27362811 -3.41510173  CHARGE =  6.0
  C   24    (CENTRE 24)   8.58920637  2.48731549 -5.95389702  CHARGE =  6.0
  C   25    (CENTRE 25)   6.66521513  0.95245789 -6.96943889  CHARGE =  6.0
  C   26    (CENTRE 26)   8.43893384 -3.27362811  3.41510173  CHARGE =  6.0
  C   27    (CENTRE 27)   6.39760834 -2.51438849  1.89483710  CHARGE =  6.0
  C   28    (CENTRE 28)   4.61233509 -0.20582427  5.46034297  CHARGE =  6.0
  C   29    (CENTRE 29)   6.66521513 -0.95245789  6.96943889  CHARGE =  6.0
  C   30    (CENTRE 30)   8.58920637 -2.48731549  5.95389702  CHARGE =  6.0
  H   31    (CENTRE 31)  -9.91681622  4.49702683  2.61377781  CHARGE =  1.0
  H   32    (CENTRE 32) -10.19381093  3.07602762  7.13772257  CHARGE =  1.0
  H   33    (CENTRE 33)  -6.76446044  0.33472648  8.95262915  CHARGE =  1.0
  H   34    (CENTRE 34)  -3.09676331 -0.97591038  6.24358801  CHARGE =  1.0
  H   35    (CENTRE 35)  -6.28940526  3.16417007 -0.07370320  CHARGE =  1.0
  H   36    (CENTRE 36)  -6.28940526 -3.16417007  0.07370320  CHARGE =  1.0
  H   37    (CENTRE 37)  -9.91681622 -4.49702683 -2.61377781  CHARGE =  1.0
  H   38    (CENTRE 38) -10.19381093 -3.07602762 -7.13772257  CHARGE =  1.0
  H   39    (CENTRE 39)  -6.76446044 -0.33472648 -8.95262915  CHARGE =  1.0
  H   40    (CENTRE 40)  -3.09676331  0.97591038 -6.24358801  CHARGE =  1.0
  H   41    (CENTRE 41)   3.09676331 -0.97591038 -6.24358801  CHARGE =  1.0
  H   42    (CENTRE 42)   6.28940526  3.16417007  0.07370320  CHARGE =  1.0
  H   43    (CENTRE 43)   9.91681622  4.49702683 -2.61377781  CHARGE =  1.0
  H   44    (CENTRE 44)  10.19381093  3.07602762 -7.13772257  CHARGE =  1.0
  H   45    (CENTRE 45)   6.76446044  0.33472648 -8.95262915  CHARGE =  1.0
  H   46    (CENTRE 46)   9.91681622 -4.49702683  2.61377781  CHARGE =  1.0
  H   47    (CENTRE 47)   6.28940526 -3.16417007 -0.07370320  CHARGE =  1.0
  H   48    (CENTRE 48)   3.09676331  0.97591038  6.24358801  CHARGE =  1.0
  H   49    (CENTRE 49)   6.76446044 -0.33472648  8.95262915  CHARGE =  1.0
  H   50    (CENTRE 50)  10.19381093 -3.07602762  7.13772257  CHARGE =  1.0
CENTRE ASSIGNMENTS    1  1  1  1  1  1  1  1  1  1  1  1  1  1  1  1  1  1  1  1
CENTRE ASSIGNMENTS    1  1  1  1  1  2  2  2  2  2  2  2  2  2  2  2  2  2  2  2
CENTRE ASSIGNMENTS    2  2  2  2  2  2  2  2  2  2  3  3  3  3  3  3  3  3  3  3
CENTRE ASSIGNMENTS    3  3  3  3  3  3  3  3  3  3  3  3  3  3  3  4  4  4  4  4
CENTRE ASSIGNMENTS    4  4  4  4  4  4  4  4  4  4  4  4  4  4  4  4  4  4  4  4
CENTRE ASSIGNMENTS    5  5  5  5  5  5  5  5  5  5  5  5  5  5  5  5  5  5  5  5
CENTRE ASSIGNMENTS    5  5  5  5  5  6  6  6  6  6  6  6  6  6  6  6  6  6  6  6
CENTRE ASSIGNMENTS    6  6  6  6  6  6  6  6  6  6  7  7  7  7  7  7  7  7  7  7
CENTRE ASSIGNMENTS    7  7  7  7  7  7  7  7  7  7  7  7  7  7  7  8  8  8  8  8
CENTRE ASSIGNMENTS    8  8  8  8  8  8  8  8  8  8  8  8  8  8  8  8  8  8  8  8
CENTRE ASSIGNMENTS    9  9  9  9  9  9  9  9  9  9  9  9  9  9  9  9  9  9  9  9
CENTRE ASSIGNMENTS    9  9  9  9  9 10 10 10 10 10 10 10 10 10 10 10 10 10 10 10
CENTRE ASSIGNMENTS   10 10 10 10 10 10 10 10 10 10 11 11 11 11 11 11 11 11 11 11
CENTRE ASSIGNMENTS   11 11 11 11 11 11 11 11 11 11 11 11 11 11 11 12 12 12 12 12
CENTRE ASSIGNMENTS   12 12 12 12 12 12 12 12 12 12 12 12 12 12 12 12 12 12 12 12
CENTRE ASSIGNMENTS   13 13 13 13 13 13 13 13 13 13 13 13 13 13 13 13 13 13 13 13
CENTRE ASSIGNMENTS   13 13 13 13 13 14 14 14 14 14 14 14 14 14 14 14 14 14 14 14
CENTRE ASSIGNMENTS   14 14 14 14 14 14 14 14 14 14 15 15 15 15 15 15 15 15 15 15
CENTRE ASSIGNMENTS   15 15 15 15 15 15 15 15 15 15 15 15 15 15 15 16 16 16 16 16
CENTRE ASSIGNMENTS   16 16 16 16 16 16 16 16 16 16 16 16 16 16 16 16 16 16 16 16
CENTRE ASSIGNMENTS   17 17 17 17 17 17 17 17 17 17 17 17 17 17 17 17 17 17 17 17
CENTRE ASSIGNMENTS   17 17 17 17 17 18 18 18 18 18 18 18 18 18 18 18 18 18 18 18
CENTRE ASSIGNMENTS   18 18 18 18 18 18 18 18 18 18 19 19 19 19 19 19 19 19 19 19
CENTRE ASSIGNMENTS   19 19 19 19 19 19 19 19 19 19 19 19 19 19 19 20 20 20 20 20
CENTRE ASSIGNMENTS   20 20 20 20 20 20 20 20 20 20 20 20 20 20 20 20 20 20 20 20
CENTRE ASSIGNMENTS   21 21 21 21 21 21 21 21 21 21 21 21 21 21 21 21 21 21 21 21
CENTRE ASSIGNMENTS   21 21 21 21 21 22 22 22 22 22 22 22 22 22 22 22 22 22 22 22
CENTRE ASSIGNMENTS   22 22 22 22 22 22 22 22 22 22 23 23 23 23 23 23 23 23 23 23
CENTRE ASSIGNMENTS   23 23 23 23 23 23 23 23 23 23 23 23 23 23 23 24 24 24 24 24
CENTRE ASSIGNMENTS   24 24 24 24 24 24 24 24 24 24 24 24 24 24 24 24 24 24 24 24
CENTRE ASSIGNMENTS   25 25 25 25 25 25 25 25 25 25 25 25 25 25 25 25 25 25 25 25
CENTRE ASSIGNMENTS   25 25 25 25 25 26 26 26 26 26 26 26 26 26 26 26 26 26 26 26
CENTRE ASSIGNMENTS   26 26 26 26 26 26 26 26 26 26 27 27 27 27 27 27 27 27 27 27
CENTRE ASSIGNMENTS   27 27 27 27 27 27 27 27 27 27 27 27 27 27 27 28 28 28 28 28
CENTRE ASSIGNMENTS   28 28 28 28 28 28 28 28 28 28 28 28 28 28 28 28 28 28 28 28
CENTRE ASSIGNMENTS   29 29 29 29 29 29 29 29 29 29 29 29 29 29 29 29 29 29 29 29
CENTRE ASSIGNMENTS   29 29 29 29 29 30 30 30 30 30 30 30 30 30 30 30 30 30 30 30
CENTRE ASSIGNMENTS   30 30 30 30 30 30 30 30 30 30 31 31 31 31 31 31 31 32 32 32
CENTRE ASSIGNMENTS   32 32 32 32 33 33 33 33 33 33 33 34 34 34 34 34 34 34 35 35
CENTRE ASSIGNMENTS   35 35 35 35 35 36 36 36 36 36 36 36 37 37 37 37 37 37 37 38
CENTRE ASSIGNMENTS   38 38 38 38 38 38 39 39 39 39 39 39 39 40 40 40 40 40 40 40
CENTRE ASSIGNMENTS   41 41 41 41 41 41 41 42 42 42 42 42 42 42 43 43 43 43 43 43
CENTRE ASSIGNMENTS   43 44 44 44 44 44 44 44 45 45 45 45 45 45 45 46 46 46 46 46
CENTRE ASSIGNMENTS   46 46 47 47 47 47 47 47 47 48 48 48 48 48 48 48 49 49 49 49
CENTRE ASSIGNMENTS   49 49 49 50 50 50 50 50 50 50
TYPE ASSIGNMENTS      1  1  1  1  1  1  1  2  2  2  3  3  3  4  4  4  2  3  4  5
TYPE ASSIGNMENTS      6  7  8  9 10  1  1  1  1  1  1  1  2  2  2  3  3  3  4  4
TYPE ASSIGNMENTS      4  2  3  4  5  6  7  8  9 10  1  1  1  1  1  1  1  2  2  2
TYPE ASSIGNMENTS      3  3  3  4  4  4  2  3  4  5  6  7  8  9 10  1  1  1  1  1
TYPE ASSIGNMENTS      1  1  2  2  2  3  3  3  4  4  4  2  3  4  5  6  7  8  9 10
TYPE ASSIGNMENTS      1  1  1  1  1  1  1  2  2  2  3  3  3  4  4  4  2  3  4  5
TYPE ASSIGNMENTS      6  7  8  9 10  1  1  1  1  1  1  1  2  2  2  3  3  3  4  4
TYPE ASSIGNMENTS      4  2  3  4  5  6  7  8  9 10  1  1  1  1  1  1  1  2  2  2
TYPE ASSIGNMENTS      3  3  3  4  4  4  2  3  4  5  6  7  8  9 10  1  1  1  1  1
TYPE ASSIGNMENTS      1  1  2  2  2  3  3  3  4  4  4  2  3  4  5  6  7  8  9 10
TYPE ASSIGNMENTS      1  1  1  1  1  1  1  2  2  2  3  3  3  4  4  4  2  3  4  5
TYPE ASSIGNMENTS      6  7  8  9 10  1  1  1  1  1  1  1  2  2  2  3  3  3  4  4
TYPE ASSIGNMENTS      4  2  3  4  5  6  7  8  9 10  1  1  1  1  1  1  1  2  2  2
TYPE ASSIGNMENTS      3  3  3  4  4  4  2  3  4  5  6  7  8  9 10  1  1  1  1  1
TYPE ASSIGNMENTS      1  1  2  2  2  3  3  3  4  4  4  2  3  4  5  6  7  8  9 10
TYPE ASSIGNMENTS      1  1  1  1  1  1  1  2  2  2  3  3  3  4  4  4  2  3  4  5
TYPE ASSIGNMENTS      6  7  8  9 10  1  1  1  1  1  1  1  2  2  2  3  3  3  4  4
TYPE ASSIGNMENTS      4  2  3  4  5  6  7  8  9 10  1  1  1  1  1  1  1  2  2  2
TYPE ASSIGNMENTS      3  3  3  4  4  4  2  3  4  5  6  7  8  9 10  1  1  1  1  1
TYPE ASSIGNMENTS      1  1  2  2  2  3  3  3  4  4  4  2  3  4  5  6  7  8  9 10
TYPE ASSIGNMENTS      1  1  1  1  1  1  1  2  2  2  3  3  3  4  4  4  2  3  4  5
TYPE ASSIGNMENTS      6  7  8  9 10  1  1  1  1  1  1  1  2  2  2  3  3  3  4  4
TYPE ASSIGNMENTS      4  2  3  4  5  6  7  8  9 10  1  1  1  1  1  1  1  2  2  2
TYPE ASSIGNMENTS      3  3  3  4  4  4  2  3  4  5  6  7  8  9 10  1  1  1  1  1
TYPE ASSIGNMENTS      1  1  2  2  2  3  3  3  4  4  4  2  3  4  5  6  7  8  9 10
TYPE ASSIGNMENTS      1  1  1  1  1  1  1  2  2  2  3  3  3  4  4  4  2  3  4  5
TYPE ASSIGNMENTS      6  7  8  9 10  1  1  1  1  1  1  1  2  2  2  3  3  3  4  4
TYPE ASSIGNMENTS      4  2  3  4  5  6  7  8  9 10  1  1  1  1  1  1  1  2  2  2
TYPE ASSIGNMENTS      3  3  3  4  4  4  2  3  4  5  6  7  8  9 10  1  1  1  1  1
TYPE ASSIGNMENTS      1  1  2  2  2  3  3  3  4  4  4  2  3  4  5  6  7  8  9 10
TYPE ASSIGNMENTS      1  1  1  1  1  1  1  2  2  2  3  3  3  4  4  4  2  3  4  5
TYPE ASSIGNMENTS      6  7  8  9 10  1  1  1  1  1  1  1  2  2  2  3  3  3  4  4
TYPE ASSIGNMENTS      4  2  3  4  5  6  7  8  9 10  1  1  1  1  1  1  1  2  2  2
TYPE ASSIGNMENTS      3  3  3  4  4  4  2  3  4  5  6  7  8  9 10  1  1  1  1  1
TYPE ASSIGNMENTS      1  1  2  2  2  3  3  3  4  4  4  2  3  4  5  6  7  8  9 10
TYPE ASSIGNMENTS      1  1  1  1  1  1  1  2  2  2  3  3  3  4  4  4  2  3  4  5
TYPE ASSIGNMENTS      6  7  8  9 10  1  1  1  1  1  1  1  2  2  2  3  3  3  4  4
TYPE ASSIGNMENTS      4  2  3  4  5  6  7  8  9 10  1  1  1  1  2  3  4  1  1  1
TYPE ASSIGNMENTS      1  2  3  4  1  1  1  1  2  3  4  1  1  1  1  2  3  4  1  1
TYPE ASSIGNMENTS      1  1  2  3  4  1  1  1  1  2  3  4  1  1  1  1  2  3  4  1
TYPE ASSIGNMENTS      1  1  1  2  3  4  1  1  1  1  2  3  4  1  1  1  1  2  3  4
TYPE ASSIGNMENTS      1  1  1  1  2  3  4  1  1  1  1  2  3  4  1  1  1  1  2  3
TYPE ASSIGNMENTS      4  1  1  1  1  2  3  4  1  1  1  1  2  3  4  1  1  1  1  2
TYPE ASSIGNMENTS      3  4  1  1  1  1  2  3  4  1  1  1  1  2  3  4  1  1  1  1
TYPE ASSIGNMENTS      2  3  4  1  1  1  1  2  3  4
EXPONENTS  0.1712842D+04 0.2576481D+03 0.5845825D+02 0.1619837D+02 0.5005260D+01
EXPONENTS  0.5873186D+00 0.1876459D+00 0.1357147D+02 0.2925737D+01 0.7992775D+00
EXPONENTS  0.1357147D+02 0.2925737D+01 0.7992775D+00 0.1357147D+02 0.2925737D+01
EXPONENTS  0.7992775D+00 0.2195435D+00 0.2195435D+00 0.2195435D+00 0.1000000D+01
EXPONENTS  0.1000000D+01 0.1000000D+01 0.1000000D+01 0.1000000D+01 0.1000000D+01
EXPONENTS  0.1238402D+04 0.1862900D+03 0.4225118D+02 0.1167656D+02 0.3593051D+01
EXPONENTS  0.4024515D+00 0.1309018D+00 0.9468097D+01 0.2010355D+01 0.5477100D+00
EXPONENTS  0.9468097D+01 0.2010355D+01 0.5477100D+00 0.9468097D+01 0.2010355D+01
EXPONENTS  0.5477100D+00 0.1526861D+00 0.1526861D+00 0.1526861D+00 0.8000000D+00
EXPONENTS  0.8000000D+00 0.8000000D+00 0.8000000D+00 0.8000000D+00 0.8000000D+00
EXPONENTS  0.1238402D+04 0.1862900D+03 0.4225118D+02 0.1167656D+02 0.3593051D+01
EXPONENTS  0.4024515D+00 0.1309018D+00 0.9468097D+01 0.2010355D+01 0.5477100D+00
EXPONENTS  0.9468097D+01 0.2010355D+01 0.5477100D+00 0.9468097D+01 0.2010355D+01
EXPONENTS  0.5477100D+00 0.1526861D+00 0.1526861D+00 0.1526861D+00 0.8000000D+00
EXPONENTS  0.8000000D+00 0.8000000D+00 0.8000000D+00 0.8000000D+00 0.8000000D+00
EXPONENTS  0.1712842D+04 0.2576481D+03 0.5845825D+02 0.1619837D+02 0.5005260D+01
EXPONENTS  0.5873186D+00 0.1876459D+00 0.1357147D+02 0.2925737D+01 0.7992775D+00
EXPONENTS  0.1357147D+02 0.2925737D+01 0.7992775D+00 0.1357147D+02 0.2925737D+01
EXPONENTS  0.7992775D+00 0.2195435D+00 0.2195435D+00 0.2195435D+00 0.1000000D+01
EXPONENTS  0.1000000D+01 0.1000000D+01 0.1000000D+01 0.1000000D+01 0.1000000D+01
EXPONENTS  0.1238402D+04 0.1862900D+03 0.4225118D+02 0.1167656D+02 0.3593051D+01
EXPONENTS  0.4024515D+00 0.1309018D+00 0.9468097D+01 0.2010355D+01 0.5477100D+00
EXPONENTS  0.9468097D+01 0.2010355D+01 0.5477100D+00 0.9468097D+01 0.2010355D+01
EXPONENTS  0.5477100D+00 0.1526861D+00 0.1526861D+00 0.1526861D+00 0.8000000D+00
EXPONENTS  0.8000000D+00 0.8000000D+00 0.8000000D+00 0.8000000D+00 0.8000000D+00
EXPONENTS  0.1238402D+04 0.1862900D+03 0.4225118D+02 0.1167656D+02 0.3593051D+01
EXPONENTS  0.4024515D+00 0.1309018D+00 0.9468097D+01 0.2010355D+01 0.5477100D+00
EXPONENTS  0.9468097D+01 0.2010355D+01 0.5477100D+00 0.9468097D+01 0.2010355D+01
EXPONENTS  0.5477100D+00 0.1526861D+00 0.1526861D+00 0.1526861D+00 0.8000000D+00
EXPONENTS  0.8000000D+00 0.8000000D+00 0.8000000D+00 0.8000000D+00 0.8000000D+00
EXPONENTS  0.1238402D+04 0.1862900D+03 0.4225118D+02 0.1167656D+02 0.3593051D+01
EXPONENTS  0.4024515D+00 0.1309018D+00 0.9468097D+01 0.2010355D+01 0.5477100D+00
EXPONENTS  0.9468097D+01 0.2010355D+01 0.5477100D+00 0.9468097D+01 0.2010355D+01
EXPONENTS  0.5477100D+00 0.1526861D+00 0.1526861D+00 0.1526861D+00 0.8000000D+00
EXPONENTS  0.8000000D+00 0.8000000D+00 0.8000000D+00 0.8000000D+00 0.8000000D+00
EXPONENTS  0.1238402D+04 0.1862900D+03 0.4225118D+02 0.1167656D+02 0.3593051D+01
EXPONENTS  0.4024515D+00 0.1309018D+00 0.9468097D+01 0.2010355D+01 0.5477100D+00
EXPONENTS  0.9468097D+01 0.2010355D+01 0.5477100D+00 0.9468097D+01 0.2010355D+01
EXPONENTS  0.5477100D+00 0.1526861D+00 0.1526861D+00 0.1526861D+00 0.8000000D+00
EXPONENTS  0.8000000D+00 0.8000000D+00 0.8000000D+00 0.8000000D+00 0.8000000D+00
EXPONENTS  0.1238402D+04 0.1862900D+03 0.4225118D+02 0.1167656D+02 0.3593051D+01
EXPONENTS  0.4024515D+00 0.1309018D+00 0.9468097D+01 0.2010355D+01 0.5477100D+00
EXPONENTS  0.9468097D+01 0.2010355D+01 0.5477100D+00 0.9468097D+01 0.2010355D+01
EXPONENTS  0.5477100D+00 0.1526861D+00 0.1526861D+00 0.1526861D+00 0.8000000D+00
EXPONENTS  0.8000000D+00 0.8000000D+00 0.8000000D+00 0.8000000D+00 0.8000000D+00
EXPONENTS  0.1238402D+04 0.1862900D+03 0.4225118D+02 0.1167656D+02 0.3593051D+01
EXPONENTS  0.4024515D+00 0.1309018D+00 0.9468097D+01 0.2010355D+01 0.5477100D+00
EXPONENTS  0.9468097D+01 0.2010355D+01 0.5477100D+00 0.9468097D+01 0.2010355D+01
EXPONENTS  0.5477100D+00 0.1526861D+00 0.1526861D+00 0.1526861D+00 0.8000000D+00
EXPONENTS  0.8000000D+00 0.8000000D+00 0.8000000D+00 0.8000000D+00 0.8000000D+00
EXPONENTS  0.1238402D+04 0.1862900D+03 0.4225118D+02 0.1167656D+02 0.3593051D+01
EXPONENTS  0.4024515D+00 0.1309018D+00 0.9468097D+01 0.2010355D+01 0.5477100D+00
EXPONENTS  0.9468097D+01 0.2010355D+01 0.5477100D+00 0.9468097D+01 0.2010355D+01
EXPONENTS  0.5477100D+00 0.1526861D+00 0.1526861D+00 0.1526861D+00 0.8000000D+00
EXPONENTS  0.8000000D+00 0.8000000D+00 0.8000000D+00 0.8000000D+00 0.8000000D+00
EXPONENTS  0.1238402D+04 0.1862900D+03 0.4225118D+02 0.1167656D+02 0.3593051D+01
EXPONENTS  0.4024515D+00 0.1309018D+00 0.9468097D+01 0.2010355D+01 0.5477100D+00
EXPONENTS  0.9468097D+01 0.2010355D+01 0.5477100D+00 0.9468097D+01 0.2010355D+01
EXPONENTS  0.5477100D+00 0.1526861D+00 0.1526861D+00 0.1526861D+00 0.8000000D+00
EXPONENTS  0.8000000D+00 0.8000000D+00 0.8000000D+00 0.8000000D+00 0.8000000D+00
EXPONENTS  0.1238402D+04 0.1862900D+03 0.4225118D+02 0.1167656D+02 0.3593051D+01
EXPONENTS  0.4024515D+00 0.1309018D+00 0.9468097D+01 0.2010355D+01 0.5477100D+00
EXPONENTS  0.9468097D+01 0.2010355D+01 0.5477100D+00 0.9468097D+01 0.2010355D+01
EXPONENTS  0.5477100D+00 0.1526861D+00 0.1526861D+00 0.1526861D+00 0.8000000D+00
EXPONENTS  0.8000000D+00 0.8000000D+00 0.8000000D+00 0.8000000D+00 0.8000000D+00
EXPONENTS  0.1238402D+04 0.1862900D+03 0.4225118D+02 0.1167656D+02 0.3593051D+01
EXPONENTS  0.4024515D+00 0.1309018D+00 0.9468097D+01 0.2010355D+01 0.5477100D+00
EXPONENTS  0.9468097D+01 0.2010355D+01 0.5477100D+00 0.9468097D+01 0.2010355D+01
EXPONENTS  0.5477100D+00 0.1526861D+00 0.1526861D+00 0.1526861D+00 0.8000000D+00
EXPONENTS  0.8000000D+00 0.8000000D+00 0.8000000D+00 0.8000000D+00 0.8000000D+00
EXPONENTS  0.1238402D+04 0.1862900D+03 0.4225118D+02 0.1167656D+02 0.3593051D+01
EXPONENTS  0.4024515D+00 0.1309018D+00 0.9468097D+01 0.2010355D+01 0.5477100D+00
EXPONENTS  0.9468097D+01 0.2010355D+01 0.5477100D+00 0.9468097D+01 0.2010355D+01
EXPONENTS  0.5477100D+00 0.1526861D+00 0.1526861D+00 0.1526861D+00 0.8000000D+00
EXPONENTS  0.8000000D+00 0.8000000D+00 0.8000000D+00 0.8000000D+00 0.8000000D+00
EXPONENTS  0.1238402D+04 0.1862900D+03 0.4225118D+02 0.1167656D+02 0.3593051D+01
EXPONENTS  0.4024515D+00 0.1309018D+00 0.9468097D+01 0.2010355D+01 0.5477100D+00
EXPONENTS  0.9468097D+01 0.2010355D+01 0.5477100D+00 0.9468097D+01 0.2010355D+01
EXPONENTS  0.5477100D+00 0.1526861D+00 0.1526861D+00 0.1526861D+00 0.8000000D+00
EXPONENTS  0.8000000D+00 0.8000000D+00 0.8000000D+00 0.8000000D+00 0.8000000D+00
EXPONENTS  0.1238402D+04 0.1862900D+03 0.4225118D+02 0.1167656D+02 0.3593051D+01
EXPONENTS  0.4024515D+00 0.1309018D+00 0.9468097D+01 0.2010355D+01 0.5477100D+00
EXPONENTS  0.9468097D+01 0.2010355D+01 0.5477100D+00 0.9468097D+01 0.2010355D+01
EXPONENTS  0.5477100D+00 0.1526861D+00 0.1526861D+00 0.1526861D+00 0.8000000D+00
EXPONENTS  0.8000000D+00 0.8000000D+00 0.8000000D+00 0.8000000D+00 0.8000000D+00
EXPONENTS  0.1238402D+04 0.1862900D+03 0.4225118D+02 0.1167656D+02 0.3593051D+01
EXPONENTS  0.4024515D+00 0.1309018D+00 0.9468097D+01 0.2010355D+01 0.5477100D+00
EXPONENTS  0.9468097D+01 0.2010355D+01 0.5477100D+00 0.9468097D+01 0.2010355D+01
EXPONENTS  0.5477100D+00 0.1526861D+00 0.1526861D+00 0.1526861D+00 0.8000000D+00
EXPONENTS  0.8000000D+00 0.8000000D+00 0.8000000D+00 0.8000000D+00 0.8000000D+00
EXPONENTS  0.1238402D+04 0.1862900D+03 0.4225118D+02 0.1167656D+02 0.3593051D+01
EXPONENTS  0.4024515D+00 0.1309018D+00 0.9468097D+01 0.2010355D+01 0.5477100D+00
EXPONENTS  0.9468097D+01 0.2010355D+01 0.5477100D+00 0.9468097D+01 0.2010355D+01
EXPONENTS  0.5477100D+00 0.1526861D+00 0.1526861D+00 0.1526861D+00 0.8000000D+00
EXPONENTS  0.8000000D+00 0.8000000D+00 0.8000000D+00 0.8000000D+00 0.8000000D+00
EXPONENTS  0.1238402D+04 0.1862900D+03 0.4225118D+02 0.1167656D+02 0.3593051D+01
EXPONENTS  0.4024515D+00 0.1309018D+00 0.9468097D+01 0.2010355D+01 0.5477100D+00
EXPONENTS  0.9468097D+01 0.2010355D+01 0.5477100D+00 0.9468097D+01 0.2010355D+01
EXPONENTS  0.5477100D+00 0.1526861D+00 0.1526861D+00 0.1526861D+00 0.8000000D+00
EXPONENTS  0.8000000D+00 0.8000000D+00 0.8000000D+00 0.8000000D+00 0.8000000D+00
EXPONENTS  0.1238402D+04 0.1862900D+03 0.4225118D+02 0.1167656D+02 0.3593051D+01
EXPONENTS  0.4024515D+00 0.1309018D+00 0.9468097D+01 0.2010355D+01 0.5477100D+00
EXPONENTS  0.9468097D+01 0.2010355D+01 0.5477100D+00 0.9468097D+01 0.2010355D+01
EXPONENTS  0.5477100D+00 0.1526861D+00 0.1526861D+00 0.1526861D+00 0.8000000D+00
EXPONENTS  0.8000000D+00 0.8000000D+00 0.8000000D+00 0.8000000D+00 0.8000000D+00
EXPONENTS  0.1238402D+04 0.1862900D+03 0.4225118D+02 0.1167656D+02 0.3593051D+01
EXPONENTS  0.4024515D+00 0.1309018D+00 0.9468097D+01 0.2010355D+01 0.5477100D+00
EXPONENTS  0.9468097D+01 0.2010355D+01 0.5477100D+00 0.9468097D+01 0.2010355D+01
EXPONENTS  0.5477100D+00 0.1526861D+00 0.1526861D+00 0.1526861D+00 0.8000000D+00
EXPONENTS  0.8000000D+00 0.8000000D+00 0.8000000D+00 0.8000000D+00 0.8000000D+00
EXPONENTS  0.1238402D+04 0.1862900D+03 0.4225118D+02 0.1167656D+02 0.3593051D+01
EXPONENTS  0.4024515D+00 0.1309018D+00 0.9468097D+01 0.2010355D+01 0.5477100D+00
EXPONENTS  0.9468097D+01 0.2010355D+01 0.5477100D+00 0.9468097D+01 0.2010355D+01
EXPONENTS  0.5477100D+00 0.1526861D+00 0.1526861D+00 0.1526861D+00 0.8000000D+00
EXPONENTS  0.8000000D+00 0.8000000D+00 0.8000000D+00 0.8000000D+00 0.8000000D+00
EXPONENTS  0.1238402D+04 0.1862900D+03 0.4225118D+02 0.1167656D+02 0.3593051D+01
EXPONENTS  0.4024515D+00 0.1309018D+00 0.9468097D+01 0.2010355D+01 0.5477100D+00
EXPONENTS  0.9468097D+01 0.2010355D+01 0.5477100D+00 0.9468097D+01 0.2010355D+01
EXPONENTS  0.5477100D+00 0.1526861D+00 0.1526861D+00 0.1526861D+00 0.8000000D+00
EXPONENTS  0.8000000D+00 0.8000000D+00 0.8000000D+00 0.8000000D+00 0.8000000D+00
EXPONENTS  0.1238402D+04 0.1862900D+03 0.4225118D+02 0.1167656D+02 0.3593051D+01
EXPONENTS  0.4024515D+00 0.1309018D+00 0.9468097D+01 0.2010355D+01 0.5477100D+00
EXPONENTS  0.9468097D+01 0.2010355D+01 0.5477100D+00 0.9468097D+01 0.2010355D+01
EXPONENTS  0.5477100D+00 0.1526861D+00 0.1526861D+00 0.1526861D+00 0.8000000D+00
EXPONENTS  0.8000000D+00 0.8000000D+00 0.8000000D+00 0.8000000D+00 0.8000000D+00
EXPONENTS  0.1238402D+04 0.1862900D+03 0.4225118D+02 0.1167656D+02 0.3593051D+01
EXPONENTS  0.4024515D+00 0.1309018D+00 0.9468097D+01 0.2010355D+01 0.5477100D+00
EXPONENTS  0.9468097D+01 0.2010355D+01 0.5477100D+00 0.9468097D+01 0.2010355D+01
EXPONENTS  0.5477100D+00 0.1526861D+00 0.1526861D+00 0.1526861D+00 0.8000000D+00
EXPONENTS  0.8000000D+00 0.8000000D+00 0.8000000D+00 0.8000000D+00 0.8000000D+00
EXPONENTS  0.1238402D+04 0.1862900D+03 0.4225118D+02 0.1167656D+02 0.3593051D+01
EXPONENTS  0.4024515D+00 0.1309018D+00 0.9468097D+01 0.2010355D+01 0.5477100D+00
EXPONENTS  0.9468097D+01 0.2010355D+01 0.5477100D+00 0.9468097D+01 0.2010355D+01
EXPONENTS  0.5477100D+00 0.1526861D+00 0.1526861D+00 0.1526861D+00 0.8000000D+00
EXPONENTS  0.8000000D+00 0.8000000D+00 0.8000000D+00 0.8000000D+00 0.8000000D+00
EXPONENTS  0.1238402D+04 0.1862900D+03 0.4225118D+02 0.1167656D+02 0.3593051D+01
EXPONENTS  0.4024515D+00 0.1309018D+00 0.9468097D+01 0.2010355D+01 0.5477100D+00
EXPONENTS  0.9468097D+01 0.2010355D+01 0.5477100D+00 0.9468097D+01 0.2010355D+01
EXPONENTS  0.5477100D+00 0.1526861D+00 0.1526861D+00 0.1526861D+00 0.8000000D+00
EXPONENTS  0.8000000D+00 0.8000000D+00 0.8000000D+00 0.8000000D+00 0.8000000D+00
EXPONENTS  0.1238402D+04 0.1862900D+03 0.4225118D+02 0.1167656D+02 0.3593051D+01
EXPONENTS  0.4024515D+00 0.1309018D+00 0.9468097D+01 0.2010355D+01 0.5477100D+00
EXPONENTS  0.9468097D+01 0.2010355D+01 0.5477100D+00 0.9468097D+01 0.2010355D+01
EXPONENTS  0.5477100D+00 0.1526861D+00 0.1526861D+00 0.1526861D+00 0.8000000D+00
EXPONENTS  0.8000000D+00 0.8000000D+00 0.8000000D+00 0.8000000D+00 0.8000000D+00
EXPONENTS  0.1238402D+04 0.1862900D+03 0.4225118D+02 0.1167656D+02 0.3593051D+01
EXPONENTS  0.4024515D+00 0.1309018D+00 0.9468097D+01 0.2010355D+01 0.5477100D+00
EXPONENTS  0.9468097D+01 0.2010355D+01 0.5477100D+00 0.9468097D+01 0.2010355D+01
EXPONENTS  0.5477100D+00 0.1526861D+00 0.1526861D+00 0.1526861D+00 0.8000000D+00
EXPONENTS  0.8000000D+00 0.8000000D+00 0.8000000D+00 0.8000000D+00 0.8000000D+00
EXPONENTS  0.1301070D+02 0.1962257D+01 0.4445380D+00 0.1219496D+00 0.8000000D+00
EXPONENTS  0.8000000D+00 0.8000000D+00 0.1301070D+02 0.1962257D+01 0.4445380D+00
EXPONENTS  0.1219496D+00 0.8000000D+00 0.8000000D+00 0.8000000D+00 0.1301070D+02
EXPONENTS  0.1962257D+01 0.4445380D+00 0.1219496D+00 0.8000000D+00 0.8000000D+00
EXPONENTS  0.8000000D+00 0.1301070D+02 0.1962257D+01 0.4445380D+00 0.1219496D+00
EXPONENTS  0.8000000D+00 0.8000000D+00 0.8000000D+00 0.1301070D+02 0.1962257D+01
EXPONENTS  0.4445380D+00 0.1219496D+00 0.8000000D+00 0.8000000D+00 0.8000000D+00
EXPONENTS  0.1301070D+02 0.1962257D+01 0.4445380D+00 0.1219496D+00 0.8000000D+00
EXPONENTS  0.8000000D+00 0.8000000D+00 0.1301070D+02 0.1962257D+01 0.4445380D+00
EXPONENTS  0.1219496D+00 0.8000000D+00 0.8000000D+00 0.8000000D+00 0.1301070D+02
EXPONENTS  0.1962257D+01 0.4445380D+00 0.1219496D+00 0.8000000D+00 0.8000000D+00
EXPONENTS  0.8000000D+00 0.1301070D+02 0.1962257D+01 0.4445380D+00 0.1219496D+00
EXPONENTS  0.8000000D+00 0.8000000D+00 0.8000000D+00 0.1301070D+02 0.1962257D+01
EXPONENTS  0.4445380D+00 0.1219496D+00 0.8000000D+00 0.8000000D+00 0.8000000D+00
EXPONENTS  0.1301070D+02 0.1962257D+01 0.4445380D+00 0.1219496D+00 0.8000000D+00
EXPONENTS  0.8000000D+00 0.8000000D+00 0.1301070D+02 0.1962257D+01 0.4445380D+00
EXPONENTS  0.1219496D+00 0.8000000D+00 0.8000000D+00 0.8000000D+00 0.1301070D+02
EXPONENTS  0.1962257D+01 0.4445380D+00 0.1219496D+00 0.8000000D+00 0.8000000D+00
EXPONENTS  0.8000000D+00 0.1301070D+02 0.1962257D+01 0.4445380D+00 0.1219496D+00
EXPONENTS  0.8000000D+00 0.8000000D+00 0.8000000D+00 0.1301070D+02 0.1962257D+01
EXPONENTS  0.4445380D+00 0.1219496D+00 0.8000000D+00 0.8000000D+00 0.8000000D+00
EXPONENTS  0.1301070D+02 0.1962257D+01 0.4445380D+00 0.1219496D+00 0.8000000D+00
EXPONENTS  0.8000000D+00 0.8000000D+00 0.1301070D+02 0.1962257D+01 0.4445380D+00
EXPONENTS  0.1219496D+00 0.8000000D+00 0.8000000D+00 0.8000000D+00 0.1301070D+02
EXPONENTS  0.1962257D+01 0.4445380D+00 0.1219496D+00 0.8000000D+00 0.8000000D+00
EXPONENTS  0.8000000D+00 0.1301070D+02 0.1962257D+01 0.4445380D+00 0.1219496D+00
EXPONENTS  0.8000000D+00 0.8000000D+00 0.8000000D+00 0.1301070D+02 0.1962257D+01
EXPONENTS  0.4445380D+00 0.1219496D+00 0.8000000D+00 0.8000000D+00 0.8000000D+00
MO    1     MO 0.0        OCC NO =    2.0000000  ORB. ENERGY =  -14.025108
 -0.72205297D+00 -0.13006094D+01 -0.19061623D+01 -0.18828565D+01 -0.74323969D+00
 -0.17579092D-01  0.12321507D-01 -0.00000000D+00 -0.00000000D+00 -0.00000000D+00
 -0.00000000D+00 -0.00000000D+00 -0.00000000D+00 -0.54720223D-02 -0.43743132D-02
 -0.20321764D-02  0.00000000D+00  0.00000000D+00  0.26213734D-02 -0.87136694D-03
  0.36929397D-03  0.50207297D-03 -0.32583000D-03  0.00000000D+00  0.00000000D+00
 -0.13348883D-03 -0.24012261D-03 -0.35004413D-03 -0.34281756D-03 -0.13482297D-03
 -0.34817268D-03 -0.25536736D-02 -0.11136557D-02 -0.88298246D-03 -0.42244747D-03
 -0.97592831D-04 -0.77378277D-04 -0.37020279D-04 -0.93780301D-03 -0.74355442D-03
 -0.35574057D-03  0.31858653D-02  0.31548774D-03  0.28460483D-03  0.66941648D-03
 -0.61053137D-03 -0.58885103D-04  0.29072594D-04  0.25208194D-02  0.92048675D-04
  0.13348883D-03  0.24012261D-03  0.35004413D-03  0.34281756D-03  0.13482297D-03
  0.34817268D-03  0.25536736D-02  0.11136557D-02  0.88298246D-03  0.42244747D-03
 -0.97592831D-04 -0.77378277D-04 -0.37020279D-04 -0.93780301D-03 -0.74355442D-03
 -0.35574057D-03 -0.31858653D-02  0.31548774D-03  0.28460483D-03 -0.66941648D-03
  0.61053137D-03  0.58885103D-04  0.29072594D-04  0.25208194D-02 -0.92048675D-04
  0.72205297D+00  0.13006094D+01  0.19061623D+01  0.18828565D+01  0.74323969D+00
  0.17579092D-01 -0.12321507D-01 -0.00000000D+00 -0.00000000D+00 -0.00000000D+00
 -0.00000000D+00 -0.00000000D+00 -0.00000000D+00 -0.54720223D-02 -0.43743132D-02
 -0.20321764D-02  0.00000000D+00  0.00000000D+00  0.26213734D-02  0.87136694D-03
 -0.36929397D-03 -0.50207297D-03 -0.32583000D-03  0.00000000D+00  0.00000000D+00
  0.13348883D-03  0.24012261D-03  0.35004413D-03  0.34281756D-03  0.13482297D-03
  0.34817268D-03  0.25536736D-02 -0.11136557D-02 -0.88298246D-03 -0.42244747D-03
  0.97592831D-04  0.77378277D-04  0.37020279D-04 -0.93780301D-03 -0.74355442D-03
 -0.35574057D-03  0.31858653D-02 -0.31548774D-03  0.28460483D-03 -0.66941648D-03
  0.61053137D-03  0.58885103D-04  0.29072594D-04 -0.25208194D-02  0.92048675D-04
 -0.13348883D-03 -0.24012261D-03 -0.35004413D-03 -0.34281756D-03 -0.13482297D-03
 -0.34817268D-03 -0.25536736D-02  0.11136557D-02  0.88298246D-03  0.42244747D-03
  0.97592831D-04  0.77378277D-04  0.37020279D-04 -0.93780301D-03 -0.74355442D-03
 -0.35574057D-03 -0.31858653D-02 -0.31548774D-03  0.28460483D-03  0.66941648D-03
 -0.61053137D-03 -0.58885103D-04  0.29072594D-04 -0.25208194D-02 -0.92048675D-04
 -0.31121430D-04 -0.55981905D-04 -0.81608879D-04 -0.79924084D-04 -0.31432468D-04
  0.26087540D-03  0.48776649D-03 -0.35839563D-04 -0.28416059D-04 -0.13595165D-04
 -0.59808749D-04 -0.47420470D-04 -0.22687492D-04 -0.69359160D-04 -0.54992690D-04
 -0.26310288D-04  0.17707991D-03 -0.85763079D-04 -0.10290310D-02 -0.21520635D-03
  0.25356126D-04  0.18985022D-03 -0.93747396D-04  0.85502689D-04  0.27942041D-03
  0.31121430D-04  0.55981905D-04  0.81608879D-04  0.79924084D-04  0.31432468D-04
 -0.26087540D-03 -0.48776649D-03  0.35839563D-04  0.28416059D-04  0.13595165D-04
 -0.59808749D-04 -0.47420470D-04 -0.22687492D-04 -0.69359160D-04 -0.54992690D-04
 -0.26310288D-04 -0.17707991D-03 -0.85763079D-04 -0.10290310D-02  0.21520635D-03
 -0.25356126D-04 -0.18985022D-03 -0.93747396D-04  0.85502689D-04 -0.27942041D-03
  0.31121430D-04  0.55981905D-04  0.81608879D-04  0.79924084D-04  0.31432468D-04
 -0.26087540D-03 -0.48776649D-03 -0.35839563D-04 -0.28416059D-04 -0.13595165D-04
  0.59808749D-04  0.47420470D-04  0.22687492D-04 -0.69359160D-04 -0.54992690D-04
 -0.26310288D-04  0.17707991D-03  0.85763079D-04 -0.10290310D-02  0.21520635D-03
 -0.25356126D-04 -0.18985022D-03 -0.93747396D-04 -0.85502689D-04  0.27942041D-03
 -0.31121430D-04 -0.55981905D-04 -0.81608879D-04 -0.79924084D-04 -0.31432468D-04
  0.26087540D-03  0.48776649D-03  0.35839563D-04  0.28416059D-04  0.13595165D-04
  0.59808749D-04  0.47420470D-04  0.22687492D-04 -0.69359160D-04 -0.54992690D-04
 -0.26310288D-04 -0.17707991D-03  0.85763079D-04 -0.10290310D-02 -0.21520635D-03
  0.25356126D-04  0.18985022D-03 -0.93747396D-04 -0.85502689D-04 -0.27942041D-03
  0.79319067D-06  0.14268086D-05  0.20799623D-05  0.20370220D-05  0.80111810D-06
 -0.49268271D-04  0.27330457D-03 -0.42105181D-04 -0.33383870D-04 -0.15971927D-04
 -0.17599874D-05 -0.13954384D-05 -0.66762304D-06 -0.14678183D-04 -0.11637868D-04